# vtk DataFile Version 2.0
cylinder
ASCII
DATASET POLYDATA
POINTS 1488 float
0 -0.5 0 -0.0652631 -0.495722 0 -0.0652631 -0.495722 0.10472 0 -0.5
0.10472 -0.12941 -0.482963 0 -0.12941 -0.482963 0.10472 -0.191342 -0.46194 0
-0.191342 -0.46194 0.10472 -0.25 -0.433013 0 -0.25 -0.433013 0.10472 -0.304381
-0.396677 0 -0.304381 -0.396677 0.10472 -0.353553 -0.353553 0 -0.353553 -0.353553
0.10472 -0.396677 -0.304381 0 -0.396677 -0.304381 0.10472 -0.433013 -0.25 0
-0.433013 -0.25 0.10472 -0.46194 -0.191342 0 -0.46194 -0.191342 0.10472 -0.482963
-0.12941 0 -0.482963 -0.12941 0.10472 -0.495722 -0.0652631 0 -0.495722 -0.0652631
0.10472 -0.5 3.06162e-17 0 -0.5 3.06162e-17 0.10472 -0.495722 0.0652631 0
-0.495722 0.0652631 0.10472 -0.482963 0.12941 0 -0.482963 0.12941 0.10472 -0.46194
0.191342 0 -0.46194 0.191342 0.10472 -0.433013 0.25 0 -0.433013 0.25
0.10472 -0.396677 0.304381 0 -0.396677 0.304381 0.10472 -0.353553 0.353553 0
-0.353553 0.353553 0.10472 -0.304381 0.396677 0 -0.304381 0.396677 0.10472 -0.25
0.433013 0 -0.25 0.433013 0.10472 -0.191342 0.46194 0 -0.191342 0.46194
0.10472 -0.12941 0.482963 0 -0.12941 0.482963 0.10472 -0.0652631 0.495722 0
-0.0652631 0.495722 0.10472 0 0.5 0 0 0.5 0.10472 0.0652631
0.495722 0 0.0652631 0.495722 0.10472 0.12941 0.482963 0 0.12941 0.482963
0.10472 0.191342 0.46194 0 0.191342 0.46194 0.10472 0.25 0.433013 0
0.25 0.433013 0.10472 0.304381 0.396677 0 0.304381 0.396677 0.10472 0.353553
0.353553 0 0.353553 0.353553 0.10472 0.396677 0.304381 0 0.396677 0.304381
0.10472 0.433013 0.25 0 0.433013 0.25 0.10472 0.46194 0.191342 0
0.46194 0.191342 0.10472 0.482963 0.12941 0 0.482963 0.12941 0.10472 0.495722
0.0652631 0 0.495722 0.0652631 0.10472 0.5 -3.06162e-17 0 0.5 -3.06162e-17
0.10472 0.495722 -0.0652631 0 0.495722 -0.0652631 0.10472 0.482963 -0.12941 0
0.482963 -0.12941 0.10472 0.46194 -0.191342 0 0.46194 -0.191342 0.10472 0.433013
-0.25 0 0.433013 -0.25 0.10472 0.396677 -0.304381 0 0.396677 -0.304381
0.10472 0.353553 -0.353553 0 0.353553 -0.353553 0.10472 0.304381 -0.396677 0
0.304381 -0.396677 0.10472 0.25 -0.433013 0 0.25 -0.433013 0.10472 0.191342
-0.46194 0 0.191342 -0.46194 0.10472 0.12941 -0.482963 0 0.12941 -0.482963
0.10472 0.0652631 -0.495722 0 0.0652631 -0.495722 0.10472 -0.0652631 -0.495722 0.20944
0 -0.5 0.20944 -0.12941 -0.482963 0.20944 -0.191342 -0.46194 0.20944 -0.25
-0.433013 0.20944 -0.304381 -0.396677 0.20944 -0.353553 -0.353553 0.20944 -0.396677 -0.304381
0.20944 -0.433013 -0.25 0.20944 -0.46194 -0.191342 0.20944 -0.482963 -0.12941 0.20944
-0.495722 -0.0652631 0.20944 -0.5 3.06162e-17 0.20944 -0.495722 0.0652631 0.20944 -0.482963
0.12941 0.20944 -0.46194 0.191342 0.20944 -0.433013 0.25 0.20944 -0.396677 0.304381
0.20944 -0.353553 0.353553 0.20944 -0.304381 0.396677 0.20944 -0.25 0.433013 0.20944
-0.191342 0.46194 0.20944 -0.12941 0.482963 0.20944 -0.0652631 0.495722 0.20944 0
0.5 0.20944 0.0652631 0.495722 0.20944 0.12941 0.482963 0.20944 0.191342 0.46194
0.20944 0.25 0.433013 0.20944 0.304381 0.396677 0.20944 0.353553 0.353553 0.20944
0.396677 0.304381 0.20944 0.433013 0.25 0.20944 0.46194 0.191342 0.20944 0.482963
0.12941 0.20944 0.495722 0.0652631 0.20944 0.5 -3.06162e-17 0.20944 0.495722 -0.0652631
0.20944 0.482963 -0.12941 0.20944 0.46194 -0.191342 0.20944 0.433013 -0.25 0.20944
0.396677 -0.304381 0.20944 0.353553 -0.353553 0.20944 0.304381 -0.396677 0.20944 0.25
-0.433013 0.20944 0.191342 -0.46194 0.20944 0.12941 -0.482963 0.20944 0.0652631 -0.495722
0.20944 -0.0652631 -0.495722 0.31416 0 -0.5 0.31416 -0.12941 -0.482963 0.31416
-0.191342 -0.46194 0.31416 -0.25 -0.433013 0.31416 -0.304381 -0.396677 0.31416 -0.353553
-0.353553 0.31416 -0.396677 -0.304381 0.31416 -0.433013 -0.25 0.31416 -0.46194 -0.191342
0.31416 -0.482963 -0.12941 0.31416 -0.495722 -0.0652631 0.31416 -0.5 3.06162e-17 0.31416
-0.495722 0.0652631 0.31416 -0.482963 0.12941 0.31416 -0.46194 0.191342 0.31416 -0.433013
0.25 0.31416 -0.396677 0.304381 0.31416 -0.353553 0.353553 0.31416 -0.304381 0.396677
0.31416 -0.25 0.433013 0.31416 -0.191342 0.46194 0.31416 -0.12941 0.482963 0.31416
-0.0652631 0.495722 0.31416 0 0.5 0.31416 0.0652631 0.495722 0.31416 0.12941
0.482963 0.31416 0.191342 0.46194 0.31416 0.25 0.433013 0.31416 0.304381 0.396677
0.31416 0.353553 0.353553 0.31416 0.396677 0.304381 0.31416 0.433013 0.25 0.31416
0.46194 0.191342 0.31416 0.482963 0.12941 0.31416 0.495722 0.0652631 0.31416 0.5
-3.06162e-17 0.31416 0.495722 -0.0652631 0.31416 0.482963 -0.12941 0.31416 0.46194 -0.191342
0.31416 0.433013 -0.25 0.31416 0.396677 -0.304381 0.31416 0.353553 -0.353553 0.31416
0.304381 -0.396677 0.31416 0.25 -0.433013 0.31416 0.191342 -0.46194 0.31416 0.12941
-0.482963 0.31416 0.0652631 -0.495722 0.31416 -0.0652631 -0.495722 0.41888 0 -0.5
0.41888 -0.12941 -0.482963 0.41888 -0.191342 -0.46194 0.41888 -0.25 -0.433013 0.41888
-0.304381 -0.396677 0.41888 -0.353553 -0.353553 0.41888 -0.396677 -0.304381 0.41888 -0.433013
-0.25 0.41888 -0.46194 -0.191342 0.41888 -0.482963 -0.12941 0.41888 -0.495722 -0.0652631
0.41888 -0.5 3.06162e-17 0.41888 -0.495722 0.0652631 0.41888 -0.482963 0.12941 0.41888
-0.46194 0.191342 0.41888 -0.433013 0.25 0.41888 -0.396677 0.304381 0.41888 -0.353553
0.353553 0.41888 -0.304381 0.396677 0.41888 -0.25 0.433013 0.41888 -0.191342 0.46194
0.41888 -0.12941 0.482963 0.41888 -0.0652631 0.495722 0.41888 0 0.5 0.41888
0.0652631 0.495722 0.41888 0.12941 0.482963 0.41888 0.191342 0.46194 0.41888 0.25
0.433013 0.41888 0.304381 0.396677 0.41888 0.353553 0.353553 0.41888 0.396677 0.304381
0.41888 0.433013 0.25 0.41888 0.46194 0.191342 0.41888 0.482963 0.12941 0.41888
0.495722 0.0652631 0.41888 0.5 -3.06162e-17 0.41888 0.495722 -0.0652631 0.41888 0.482963
-0.12941 0.41888 0.46194 -0.191342 0.41888 0.433013 -0.25 0.41888 0.396677 -0.304381
0.41888 0.353553 -0.353553 0.41888 0.304381 -0.396677 0.41888 0.25 -0.433013 0.41888
0.191342 -0.46194 0.41888 0.12941 -0.482963 0.41888 0.0652631 -0.495722 0.41888 -0.0652631
-0.495722 0.5236 0 -0.5 0.5236 -0.12941 -0.482963 0.5236 -0.191342 -0.46194
0.5236 -0.25 -0.433013 0.5236 -0.304381 -0.396677 0.5236 -0.353553 -0.353553 0.5236
-0.396677 -0.304381 0.5236 -0.433013 -0.25 0.5236 -0.46194 -0.191342 0.5236 -0.482963
-0.12941 0.5236 -0.495722 -0.0652631 0.5236 -0.5 3.06162e-17 0.5236 -0.495722 0.0652631
0.5236 -0.482963 0.12941 0.5236 -0.46194 0.191342 0.5236 -0.433013 0.25 0.5236
-0.396677 0.304381 0.5236 -0.353553 0.353553 0.5236 -0.304381 0.396677 0.5236 -0.25
0.433013 0.5236 -0.191342 0.46194 0.5236 -0.12941 0.482963 0.5236 -0.0652631 0.495722
0.5236 0 0.5 0.5236 0.0652631 0.495722 0.5236 0.12941 0.482963 0.5236
0.191342 0.46194 0.5236 0.25 0.433013 0.5236 0.304381 0.396677 0.5236 0.353553
0.353553 0.5236 0.396677 0.304381 0.5236 0.433013 0.25 0.5236 0.46194 0.191342
0.5236 0.482963 0.12941 0.5236 0.495722 0.0652631 0.5236 0.5 -3.06162e-17 0.5236
0.495722 -0.0652631 0.5236 0.482963 -0.12941 0.5236 0.46194 -0.191342 0.5236 0.433013
-0.25 0.5236 0.396677 -0.304381 0.5236 0.353553 -0.353553 0.5236 0.304381 -0.396677
0.5236 0.25 -0.433013 0.5236 0.191342 -0.46194 0.5236 0.12941 -0.482963 0.5236
0.0652631 -0.495722 0.5236 -0.0652631 -0.495722 0.62832 0 -0.5 0.62832 -0.12941
-0.482963 0.62832 -0.191342 -0.46194 0.62832 -0.25 -0.433013 0.62832 -0.304381 -0.396677
0.62832 -0.353553 -0.353553 0.62832 -0.396677 -0.304381 0.62832 -0.433013 -0.25 0.62832
-0.46194 -0.191342 0.62832 -0.482963 -0.12941 0.62832 -0.495722 -0.0652631 0.62832 -0.5
3.06162e-17 0.62832 -0.495722 0.0652631 0.62832 -0.482963 0.12941 0.62832 -0.46194 0.191342
0.62832 -0.433013 0.25 0.62832 -0.396677 0.304381 0.62832 -0.353553 0.353553 0.62832
-0.304381 0.396677 0.62832 -0.25 0.433013 0.62832 -0.191342 0.46194 0.62832 -0.12941
0.482963 0.62832 -0.0652631 0.495722 0.62832 0 0.5 0.62832 0.0652631 0.495722
0.62832 0.12941 0.482963 0.62832 0.191342 0.46194 0.62832 0.25 0.433013 0.62832
0.304381 0.396677 0.62832 0.353553 0.353553 0.62832 0.396677 0.304381 0.62832 0.433013
0.25 0.62832 0.46194 0.191342 0.62832 0.482963 0.12941 0.62832 0.495722 0.0652631
0.62832 0.5 -3.06162e-17 0.62832 0.495722 -0.0652631 0.62832 0.482963 -0.12941 0.62832
0.46194 -0.191342 0.62832 0.433013 -0.25 0.62832 0.396677 -0.304381 0.62832 0.353553
-0.353553 0.62832 0.304381 -0.396677 0.62832 0.25 -0.433013 0.62832 0.191342 -0.46194
0.62832 0.12941 -0.482963 0.62832 0.0652631 -0.495722 0.62832 -0.0652631 -0.495722 0.73304
0 -0.5 0.73304 -0.12941 -0.482963 0.73304 -0.191342 -0.46194 0.73304 -0.25
-0.433013 0.73304 -0.304381 -0.396677 0.73304 -0.353553 -0.353553 0.73304 -0.396677 -0.304381
0.73304 -0.433013 -0.25 0.73304 -0.46194 -0.191342 0.73304 -0.482963 -0.12941 0.73304
-0.495722 -0.0652631 0.73304 -0.5 3.06162e-17 0.73304 -0.495722 0.0652631 0.73304 -0.482963
0.12941 0.73304 -0.46194 0.191342 0.73304 -0.433013 0.25 0.73304 -0.396677 0.304381
0.73304 -0.353553 0.353553 0.73304 -0.304381 0.396677 0.73304 -0.25 0.433013 0.73304
-0.191342 0.46194 0.73304 -0.12941 0.482963 0.73304 -0.0652631 0.495722 0.73304 0
0.5 0.73304 0.0652631 0.495722 0.73304 0.12941 0.482963 0.73304 0.191342 0.46194
0.73304 0.25 0.433013 0.73304 0.304381 0.396677 0.73304 0.353553 0.353553 0.73304
0.396677 0.304381 0.73304 0.433013 0.25 0.73304 0.46194 0.191342 0.73304 0.482963
0.12941 0.73304 0.495722 0.0652631 0.73304 0.5 -3.06162e-17 0.73304 0.495722 -0.0652631
0.73304 0.482963 -0.12941 0.73304 0.46194 -0.191342 0.73304 0.433013 -0.25 0.73304
0.396677 -0.304381 0.73304 0.353553 -0.353553 0.73304 0.304381 -0.396677 0.73304 0.25
-0.433013 0.73304 0.191342 -0.46194 0.73304 0.12941 -0.482963 0.73304 0.0652631 -0.495722
0.73304 -0.0652631 -0.495722 0.83776 0 -0.5 0.83776 -0.12941 -0.482963 0.83776
-0.191342 -0.46194 0.83776 -0.25 -0.433013 0.83776 -0.304381 -0.396677 0.83776 -0.353553
-0.353553 0.83776 -0.396677 -0.304381 0.83776 -0.433013 -0.25 0.83776 -0.46194 -0.191342
0.83776 -0.482963 -0.12941 0.83776 -0.495722 -0.0652631 0.83776 -0.5 3.06162e-17 0.83776
-0.495722 0.0652631 0.83776 -0.482963 0.12941 0.83776 -0.46194 0.191342 0.83776 -0.433013
[...]
CELL_DATA 1440
FIELD attributes 13
patchID 1 1440 float
1 1 1 1 1 1 1 1 1 1 1
1 1 1 1 1 1 1 1 1 1
1 1 1 1 1 1 1 1 1 1
1 1 1 1 1 1 1 1 1 1
1 1 1 1 1 1 1 1 1 1
1 1 1 1 1 1 1 1 1 1
1 1 1 1 1 1 1 1 1 1
1 1 1 1 1 1 1 1 1 1
1 1 1 1 1 1 1 1 1 1
1 1 1 1 1 1 1 1 1 1
1 1 1 1 1 1 1 1 1 1
1 1 1 1 1 1 1 1 1 1
1 1 1 1 1 1 1 1 1 1
1 1 1 1 1 1 1 1 1 1
1 1 1 1 1 1 1 1 1 1
1 1 1 1 1 1 1 1 1 1
1 1 1 1 1 1 1 1 1 1
1 1 1 1 1 1 1 1 1 1
1 1 1 1 1 1 1 1 1 1
1 1 1 1 1 1 1 1 1 1
1 1 1 1 1 1 1 1 1 1
1 1 1 1 1 1 1 1 1 1
1 1 1 1 1 1 1 1 1 1
1 1 1 1 1 1 1 1 1 1
1 1 1 1 1 1 1 1 1 1
1 1 1 1 1 1 1 1 1 1
1 1 1 1 1 1 1 1 1 1
1 1 1 1 1 1 1 1 1 1
1 1 1 1 1 1 1 1 1 1
1 1 1 1 1 1 1 1 1 1
1 1 1 1 1 1 1 1 1 1
1 1 1 1 1 1 1 1 1 1
1 1 1 1 1 1 1 1 1 1
1 1 1 1 1 1 1 1 1 1
1 1 1 1 1 1 1 1 1 1
1 1 1 1 1 1 1 1 1 1
1 1 1 1 1 1 1 1 1 1
1 1 1 1 1 1 1 1 1 1
1 1 1 1 1 1 1 1 1 1
1 1 1 1 1 1 1 1 1 1
1 1 1 1 1 1 1 1 1 1
1 1 1 1 1 1 1 1 1 1
1 1 1 1 1 1 1 1 1 1
1 1 1 1 1 1 1 1 1 1
1 1 1 1 1 1 1 1 1 1
1 1 1 1 1 1 1 1 1 1
1 1 1 1 1 1 1 1 1 1
1 1 1 1 1 1 1 1 1 1
1 1 1 1 1 1 1 1 1 1
1 1 1 1 1 1 1 1 1 1
1 1 1 1 1 1 1 1 1 1
1 1 1 1 1 1 1 1 1 1
1 1 1 1 1 1 1 1 1 1
1 1 1 1 1 1 1 1 1 1
1 1 1 1 1 1 1 1 1 1
1 1 1 1 1 1 1 1 1 1
1 1 1 1 1 1 1 1 1 1
1 1 1 1 1 1 1 1 1 1
1 1 1 1 1 1 1 1 1 1
1 1 1 1 1 1 1 1 1 1
1 1 1 1 1 1 1 1 1 1
1 1 1 1 1 1 1 1 1 1
1 1 1 1 1 1 1 1 1 1
1 1 1 1 1 1 1 1 1 1
1 1 1 1 1 1 1 1 1 1
1 1 1 1 1 1 1 1 1 1
1 1 1 1 1 1 1 1 1 1
1 1 1 1 1 1 1 1 1 1
1 1 1 1 1 1 1 1 1 1
1 1 1 1 1 1 1 1 1 1
1 1 1 1 1 1 1 1 1 1
1 1 1 1 1 1 1 1 1 1
1 1 1 1 1 1 1 1 1 1
1 1 1 1 1 1 1 1 1 1
1 1 1 1 1 1 1 1 1 1
1 1 1 1 1 1 1 1 1 1
1 1 1 1 1 1 1 1 1 1
1 1 1 1 1 1 1 1 1 1
1 1 1 1 1 1 1 1 1 1
1 1 1 1 1 1 1 1 1 1
1 1 1 1 1 1 1 1 1 1
1 1 1 1 1 1 1 1 1 1
1 1 1 1 1 1 1 1 1 1
1 1 1 1 1 1 1 1 1 1
1 1 1 1 1 1 1 1 1 1
1 1 1 1 1 1 1 1 1 1
1 1 1 1 1 1 1 1 1 1
1 1 1 1 1 1 1 1 1 1
1 1 1 1 1 1 1 1 1 1
1 1 1 1 1 1 1 1 1 1
1 1 1 1 1 1 1 1 1 1
1 1 1 1 1 1 1 1 1 1
1 1 1 1 1 1 1 1 1 1
1 1 1 1 1 1 1 1 1 1
1 1 1 1 1 1 1 1 1 1
1 1 1 1 1 1 1 1 1 1
1 1 1 1 1 1 1 1 1 1
1 1 1 1 1 1 1 1 1 1
1 1 1 1 1 1 1 1 1 1
1 1 1 1 1 1 1 1 1 1
1 1 1 1 1 1 1 1 1 1
1 1 1 1 1 1 1 1 1 1
1 1 1 1 1 1 1 1 1 1
1 1 1 1 1 1 1 1 1 1
1 1 1 1 1 1 1 1 1 1
1 1 1 1 1 1 1 1 1 1
1 1 1 1 1 1 1 1 1 1
1 1 1 1 1 1 1 1 1 1
1 1 1 1 1 1 1 1 1 1
1 1 1 1 1 1 1 1 1 1
1 1 1 1 1 1 1 1 1 1
1 1 1 1 1 1 1 1 1 1
1 1 1 1 1 1 1 1 1 1
1 1 1 1 1 1 1 1 1 1
1 1 1 1 1 1 1 1 1 1
1 1 1 1 1 1 1 1 1 1
1 1 1 1 1 1 1 1 1 1
1 1 1 1 1 1 1 1 1 1
1 1 1 1 1 1 1 1 1 1
1 1 1 1 1 1 1 1 1 1
1 1 1 1 1 1 1 1 1 1
1 1 1 1 1 1 1 1 1 1
1 1 1 1 1 1 1 1 1 1
1 1 1 1 1 1 1 1 1 1
1 1 1 1 1 1 1 1 1 1
1 1 1 1 1 1 1 1 1 1
1 1 1 1 1 1 1 1 1 1
1 1 1 1 1 1 1 1 1 1
1 1 1 1 1 1 1 1 1 1
1 1 1 1 1 1 1 1 1 1
1 1 1 1 1 1 1 1 1 1
1 1 1 1 1 1 1 1 1 1
1 1 1 1 1 1 1 1 1 1
1 1 1 1 1 1 1 1 1 1
1 1 1 1 1 1 1 1 1 1
1 1 1 1 1 1 1 1 1 1
1 1 1 1 1 1 1 1 1 1
1 1 1 1 1 1 1 1 1 1
1 1 1 1 1 1 1 1 1 1
1 1 1 1 1 1 1 1 1 1
1 1 1 1 1 1 1 1 1 1
1 1 1 1 1 1 1 1 1 1
1 1 1 1 1 1 1 1 1 1
1 1 1 1 1 1 1 1 1 
nuTilda_0 1 1440 float
0 0 0 0 0 0 0 0 0 0 0
0 0 0 0 0 0 0 0 0 0
0 0 0 0 0 0 0 0 0 0
0 0 0 0 0 0 0 0 0 0
0 0 0 0 0 0 0 0 0 0
0 0 0 0 0 0 0 0 0 0
0 0 0 0 0 0 0 0 0 0
0 0 0 0 0 0 0 0 0 0
0 0 0 0 0 0 0 0 0 0
0 0 0 0 0 0 0 0 0 0
0 0 0 0 0 0 0 0 0 0
0 0 0 0 0 0 0 0 0 0
0 0 0 0 0 0 0 0 0 0
0 0 0 0 0 0 0 0 0 0
0 0 0 0 0 0 0 0 0 0
0 0 0 0 0 0 0 0 0 0
0 0 0 0 0 0 0 0 0 0
0 0 0 0 0 0 0 0 0 0
0 0 0 0 0 0 0 0 0 0
0 0 0 0 0 0 0 0 0 0
0 0 0 0 0 0 0 0 0 0
0 0 0 0 0 0 0 0 0 0
0 0 0 0 0 0 0 0 0 0
0 0 0 0 0 0 0 0 0 0
0 0 0 0 0 0 0 0 0 0
0 0 0 0 0 0 0 0 0 0
0 0 0 0 0 0 0 0 0 0
0 0 0 0 0 0 0 0 0 0
0 0 0 0 0 0 0 0 0 0
0 0 0 0 0 0 0 0 0 0
0 0 0 0 0 0 0 0 0 0
0 0 0 0 0 0 0 0 0 0
0 0 0 0 0 0 0 0 0 0
0 0 0 0 0 0 0 0 0 0
0 0 0 0 0 0 0 0 0 0
0 0 0 0 0 0 0 0 0 0
0 0 0 0 0 0 0 0 0 0
0 0 0 0 0 0 0 0 0 0
0 0 0 0 0 0 0 0 0 0
0 0 0 0 0 0 0 0 0 0
0 0 0 0 0 0 0 0 0 0
0 0 0 0 0 0 0 0 0 0
0 0 0 0 0 0 0 0 0 0
0 0 0 0 0 0 0 0 0 0
0 0 0 0 0 0 0 0 0 0
0 0 0 0 0 0 0 0 0 0
0 0 0 0 0 0 0 0 0 0
0 0 0 0 0 0 0 0 0 0
0 0 0 0 0 0 0 0 0 0
0 0 0 0 0 0 0 0 0 0
0 0 0 0 0 0 0 0 0 0
0 0 0 0 0 0 0 0 0 0
0 0 0 0 0 0 0 0 0 0
0 0 0 0 0 0 0 0 0 0
0 0 0 0 0 0 0 0 0 0
0 0 0 0 0 0 0 0 0 0
0 0 0 0 0 0 0 0 0 0
0 0 0 0 0 0 0 0 0 0
0 0 0 0 0 0 0 0 0 0
0 0 0 0 0 0 0 0 0 0
0 0 0 0 0 0 0 0 0 0
0 0 0 0 0 0 0 0 0 0
0 0 0 0 0 0 0 0 0 0
0 0 0 0 0 0 0 0 0 0
0 0 0 0 0 0 0 0 0 0
0 0 0 0 0 0 0 0 0 0
0 0 0 0 0 0 0 0 0 0
0 0 0 0 0 0 0 0 0 0
0 0 0 0 0 0 0 0 0 0
0 0 0 0 0 0 0 0 0 0
0 0 0 0 0 0 0 0 0 0
0 0 0 0 0 0 0 0 0 0
0 0 0 0 0 0 0 0 0 0
0 0 0 0 0 0 0 0 0 0
0 0 0 0 0 0 0 0 0 0
0 0 0 0 0 0 0 0 0 0
0 0 0 0 0 0 0 0 0 0
0 0 0 0 0 0 0 0 0 0
0 0 0 0 0 0 0 0 0 0
0 0 0 0 0 0 0 0 0 0
0 0 0 0 0 0 0 0 0 0
0 0 0 0 0 0 0 0 0 0
0 0 0 0 0 0 0 0 0 0
0 0 0 0 0 0 0 0 0 0
0 0 0 0 0 0 0 0 0 0
0 0 0 0 0 0 0 0 0 0
0 0 0 0 0 0 0 0 0 0
0 0 0 0 0 0 0 0 0 0
0 0 0 0 0 0 0 0 0 0
0 0 0 0 0 0 0 0 0 0
0 0 0 0 0 0 0 0 0 0
0 0 0 0 0 0 0 0 0 0
0 0 0 0 0 0 0 0 0 0
0 0 0 0 0 0 0 0 0 0
0 0 0 0 0 0 0 0 0 0
0 0 0 0 0 0 0 0 0 0
0 0 0 0 0 0 0 0 0 0
0 0 0 0 0 0 0 0 0 0
0 0 0 0 0 0 0 0 0 0
0 0 0 0 0 0 0 0 0 0
0 0 0 0 0 0 0 0 0 0
0 0 0 0 0 0 0 0 0 0
0 0 0 0 0 0 0 0 0 0
0 0 0 0 0 0 0 0 0 0
0 0 0 0 0 0 0 0 0 0
0 0 0 0 0 0 0 0 0 0
0 0 0 0 0 0 0 0 0 0
0 0 0 0 0 0 0 0 0 0
0 0 0 0 0 0 0 0 0 0
0 0 0 0 0 0 0 0 0 0
0 0 0 0 0 0 0 0 0 0
0 0 0 0 0 0 0 0 0 0
0 0 0 0 0 0 0 0 0 0
0 0 0 0 0 0 0 0 0 0
0 0 0 0 0 0 0 0 0 0
0 0 0 0 0 0 0 0 0 0
0 0 0 0 0 0 0 0 0 0
0 0 0 0 0 0 0 0 0 0
0 0 0 0 0 0 0 0 0 0
0 0 0 0 0 0 0 0 0 0
0 0 0 0 0 0 0 0 0 0
0 0 0 0 0 0 0 0 0 0
0 0 0 0 0 0 0 0 0 0
0 0 0 0 0 0 0 0 0 0
0 0 0 0 0 0 0 0 0 0
0 0 0 0 0 0 0 0 0 0
0 0 0 0 0 0 0 0 0 0
0 0 0 0 0 0 0 0 0 0
0 0 0 0 0 0 0 0 0 0
0 0 0 0 0 0 0 0 0 0
0 0 0 0 0 0 0 0 0 0
0 0 0 0 0 0 0 0 0 0
0 0 0 0 0 0 0 0 0 0
0 0 0 0 0 0 0 0 0 0
0 0 0 0 0 0 0 0 0 0
0 0 0 0 0 0 0 0 0 0
0 0 0 0 0 0 0 0 0 0
0 0 0 0 0 0 0 0 0 0
0 0 0 0 0 0 0 0 0 0
0 0 0 0 0 0 0 0 0 0
0 0 0 0 0 0 0 0 0 0
0 0 0 0 0 0 0 0 0 0
0 0 0 0 0 0 0 0 0 0
0 0 0 0 0 0 0 0 0 
nuSgs 1 1440 float
0 0 0 0 0 0 0 0 0 0 0
0 0 0 0 0 0 0 0 0 0
0 0 0 0 0 0 0 0 0 0
0 0 0 0 0 0 0 0 0 0
0 0 0 0 0 0 0 0 0 0
0 0 0 0 0 0 0 0 0 0
0 0 0 0 0 0 0 0 0 0
0 0 0 0 0 0 0 0 0 0
0 0 0 0 0 0 0 0 0 0
0 0 0 0 0 0 0 0 0 0
0 0 0 0 0 0 0 0 0 0
0 0 0 0 0 0 0 0 0 0
0 0 0 0 0 0 0 0 0 0
0 0 0 0 0 0 0 0 0 0
0 0 0 0 0 0 0 0 0 0
0 0 0 0 0 0 0 0 0 0
0 0 0 0 0 0 0 0 0 0
0 0 0 0 0 0 0 0 0 0
0 0 0 0 0 0 0 0 0 0
0 0 0 0 0 0 0 0 0 0
0 0 0 0 0 0 0 0 0 0
0 0 0 0 0 0 0 0 0 0
0 0 0 0 0 0 0 0 0 0
0 0 0 0 0 0 0 0 0 0
0 0 0 0 0 0 0 0 0 0
0 0 0 0 0 0 0 0 0 0
0 0 0 0 0 0 0 0 0 0
0 0 0 0 0 0 0 0 0 0
0 0 0 0 0 0 0 0 0 0
0 0 0 0 0 0 0 0 0 0
0 0 0 0 0 0 0 0 0 0
0 0 0 0 0 0 0 0 0 0
0 0 0 0 0 0 0 0 0 0
0 0 0 0 0 0 0 0 0 0
0 0 0 0 0 0 0 0 0 0
0 0 0 0 0 0 0 0 0 0
0 0 0 0 0 0 0 0 0 0
0 0 0 0 0 0 0 0 0 0
0 0 0 0 0 0 0 0 0 0
0 0 0 0 0 0 0 0 0 0
0 0 0 0 0 0 0 0 0 0
0 0 0 0 0 0 0 0 0 0
0 0 0 0 0 0 0 0 0 0
0 0 0 0 0 0 0 0 0 0
0 0 0 0 0 0 0 0 0 0
0 0 0 0 0 0 0 0 0 0
0 0 0 0 0 0 0 0 0 0
0 0 0 0 0 0 0 0 0 0
0 0 0 0 0 0 0 0 0 0
0 0 0 0 0 0 0 0 0 0
0 0 0 0 0 0 0 0 0 0
0 0 0 0 0 0 0 0 0 0
0 0 0 0 0 0 0 0 0 0
0 0 0 0 0 0 0 0 0 0
0 0 0 0 0 0 0 0 0 0
0 0 0 0 0 0 0 0 0 0
0 0 0 0 0 0 0 0 0 0
0 0 0 0 0 0 0 0 0 0
0 0 0 0 0 0 0 0 0 0
0 0 0 0 0 0 0 0 0 0
0 0 0 0 0 0 0 0 0 0
0 0 0 0 0 0 0 0 0 0
0 0 0 0 0 0 0 0 0 0
0 0 0 0 0 0 0 0 0 0
0 0 0 0 0 0 0 0 0 0
0 0 0 0 0 0 0 0 0 0
0 0 0 0 0 0 0 0 0 0
0 0 0 0 0 0 0 0 0 0
0 0 0 0 0 0 0 0 0 0
0 0 0 0 0 0 0 0 0 0
0 0 0 0 0 0 0 0 0 0
0 0 0 0 0 0 0 0 0 0
0 0 0 0 0 0 0 0 0 0
0 0 0 0 0 0 0 0 0 0
0 0 0 0 0 0 0 0 0 0
0 0 0 0 0 0 0 0 0 0
0 0 0 0 0 0 0 0 0 0
0 0 0 0 0 0 0 0 0 0
0 0 0 0 0 0 0 0 0 0
0 0 0 0 0 0 0 0 0 0
0 0 0 0 0 0 0 0 0 0
0 0 0 0 0 0 0 0 0 0
0 0 0 0 0 0 0 0 0 0
0 0 0 0 0 0 0 0 0 0
0 0 0 0 0 0 0 0 0 0
0 0 0 0 0 0 0 0 0 0
0 0 0 0 0 0 0 0 0 0
0 0 0 0 0 0 0 0 0 0
0 0 0 0 0 0 0 0 0 0
0 0 0 0 0 0 0 0 0 0
0 0 0 0 0 0 0 0 0 0
0 0 0 0 0 0 0 0 0 0
0 0 0 0 0 0 0 0 0 0
0 0 0 0 0 0 0 0 0 0
0 0 0 0 0 0 0 0 0 0
0 0 0 0 0 0 0 0 0 0
0 0 0 0 0 0 0 0 0 0
0 0 0 0 0 0 0 0 0 0
0 0 0 0 0 0 0 0 0 0
0 0 0 0 0 0 0 0 0 0
0 0 0 0 0 0 0 0 0 0
0 0 0 0 0 0 0 0 0 0
0 0 0 0 0 0 0 0 0 0
0 0 0 0 0 0 0 0 0 0
0 0 0 0 0 0 0 0 0 0
0 0 0 0 0 0 0 0 0 0
0 0 0 0 0 0 0 0 0 0
0 0 0 0 0 0 0 0 0 0
0 0 0 0 0 0 0 0 0 0
0 0 0 0 0 0 0 0 0 0
0 0 0 0 0 0 0 0 0 0
0 0 0 0 0 0 0 0 0 0
0 0 0 0 0 0 0 0 0 0
0 0 0 0 0 0 0 0 0 0
0 0 0 0 0 0 0 0 0 0
0 0 0 0 0 0 0 0 0 0
0 0 0 0 0 0 0 0 0 0
0 0 0 0 0 0 0 0 0 0
0 0 0 0 0 0 0 0 0 0
0 0 0 0 0 0 0 0 0 0
0 0 0 0 0 0 0 0 0 0
0 0 0 0 0 0 0 0 0 0
0 0 0 0 0 0 0 0 0 0
0 0 0 0 0 0 0 0 0 0
0 0 0 0 0 0 0 0 0 0
0 0 0 0 0 0 0 0 0 0
0 0 0 0 0 0 0 0 0 0
0 0 0 0 0 0 0 0 0 0
0 0 0 0 0 0 0 0 0 0
0 0 0 0 0 0 0 0 0 0
0 0 0 0 0 0 0 0 0 0
0 0 0 0 0 0 0 0 0 0
0 0 0 0 0 0 0 0 0 0
0 0 0 0 0 0 0 0 0 0
0 0 0 0 0 0 0 0 0 0
0 0 0 0 0 0 0 0 0 0
0 0 0 0 0 0 0 0 0 0
0 0 0 0 0 0 0 0 0 0
0 0 0 0 0 0 0 0 0 0
0 0 0 0 0 0 0 0 0 0
0 0 0 0 0 0 0 0 0 0
0 0 0 0 0 0 0 0 0 0
0 0 0 0 0 0 0 0 0 0
0 0 0 0 0 0 0 0 0 
pMean 1 1440 float
-2473.37 -2785.87 -2926.24 -2756.98 -2279.27 -1567.93 -718.542 170.075 1004.81 1707.06 2212.6
2471.83 2472.01 2213.71 1709.33 1007.78 173.623 -714.268 -1562.73 -2273.04 -2749.76
-2918.28 -2777.7 -2465.64 -2214.36 -2103.93 -2071.85 -2070.83 -2063.26 -2082.87 -2135.25
-2165.21 -2178.51 -2172.01 -2128.09 -2086.38 -2089.64 -2135.4 -2178.72 -2186.02 -2173.99
-2145.37 -2091.28 -2069.12 -2077.56 -2079.49 -2110.33 -2221.25 -2484.58 -2795.13 -2932.39
-2760.8 -2281.43 -1569.23 -719.281 169.613 1004.6 1706.92 2212.54 2471.79 2471.98
2213.66 1709.2 1007.58 173.194 -714.934 -1563.9 -2274.92 -2753.08 -2923.57 -2785.76
-2475.38 -2224.6 -2112.95 -2085.25 -2086.39 -2082.85 -2117.61 -2165.84 -2190.34 -2209.75
-2195.07 -2129.85 -2066.8 -2067.56 -2133.42 -2201.71 -2221.41 -2201.64 -2176.03 -2127.2
-2089.56 -2094.36 -2094.1 -2120.69 -2232.94 -2488.93 -2800.46 -2937.47 -2764.92 -2284.37
-1571.2 -720.518 168.873 1004.21 1706.74 2212.48 2471.78 2471.97 2213.6 1709.01
1007.22 172.506 -716.064 -1565.64 -2277.46 -2756.41 -2927.37 -2789.1 -2477.46 -2225.71
-2113.63 -2087.27 -2088.42 -2083.07 -2115.76 -2162.78 -2188.03 -2209.07 -2201.11 -2146.06
-2088.22 -2089.74 -2154.16 -2214.39 -2224.46 -2201.05 -2174.17 -2125.75 -2092.06 -2099.12
-2097.08 -2123.3 -2236.44 -2505.33 -2814.91 -2948.07 -2771.95 -2288.82 -1573.97 -722.212
167.889 1003.67 1706.49 2212.4 2471.78 2471.96 2213.52 1708.77 1006.69 171.558
-717.661 -1568.23 -2281.59 -2762.95 -2937.29 -2802.81 -2493.14 -2241.02 -2127.3 -2098.85
-2102.18 -2093.45 -2121.84 -2172.71 -2199.06 -2225.33 -2227.02 -2181.01 -2127.94 -2129.32
-2186.59 -2236.44 -2237.19 -2210.66 -2184.3 -2132.09 -2104.39 -2113.99 -2108.8 -2137.75
-2252.24 -2514.4 -2824.07 -2956.04 -2777.97 -2293.1 -1576.8 -724.039 166.805 1003.07
1706.21 2212.3 2471.77 2471.95 2213.42 1708.48 1006.08 170.493 -719.427 -1570.94
-2285.58 -2768.47 -2944.39 -2810.68 -2500.63 -2247.45 -2133.12 -2101.46 -2105.51 -2096.54
-2120.53 -2171.66 -2197.44 -2226.23 -2234.86 -2195.26 -2144.06 -2146.6 -2201.75 -2242.88
-2236.66 -2209.01 -2184.05 -2132.11 -2108.94 -2118.99 -2113.16 -2144.97 -2260.16 -2526.84
-2835.45 -2965.02 -2784.31 -2297.44 -1579.65 -725.879 165.702 1002.44 1705.92 2212.2
2471.77 2471.95 2213.3 1708.17 1005.44 169.374 -721.277 -1573.76 -2289.86 -2774.68
-2953.22 -2821.89 -2513 -2258.75 -2143.87 -2109.55 -2113.62 -2105.2 -2125.89 -2175.91
-2201.28 -2229.59 -2240.89 -2206.69 -2160.15 -2163.67 -2212.67 -2247.03 -2239.83 -2212.7
-2187.67 -2137.55 -2117.38 -2126.37 -2121.31 -2155.57 -2271.46 -2533.14 -2841.96 -2970.97
-2789.01 -2300.97 -1582.12 -727.538 164.676 1001.85 1705.64 2212.12 2471.75 2471.94
2213.18 1707.86 1004.8 168.284 -723.01 -1576.3 -2293.47 -2779.48 -2959.19 -2828.41
-2519.22 -2263.89 -2148.86 -2113.32 -2116.14 -2108.35 -2128.32 -2177.04 -2201.41 -2227.32
-2236.09 -2205.82 -2164.13 -2168.96 -2216 -2247.98 -2239.03 -2211.83 -2187.34 -2139.29
-2120.16 -2127.76 -2124.53 -2160.54 -2276.63 -2538.41 -2847.28 -2975.73 -2792.8 -2303.87
-1584.19 -728.974 163.764 1001.33 1705.39 2212.04 2471.75 2471.92 2213.08 1707.55
1004.2 167.264 -724.595 -1578.6 -2296.68 -2783.72 -2964.6 -2834.6 -2525.5 -2269.25
-2153.98 -2118.26 -2119.61 -2112.79 -2133.07 -2180.52 -2204.05 -2228.72 -2237.03 -2207.44
-2164.35 -2170.17 -2217.28 -2250.12 -2240.23 -2213.04 -2189.03 -2141.65 -2122.11 -2129.16
-2128.02 -2164.73 -2280.95 -2540.41 -2849.81 -2978.52 -2795.39 -2306.03 -1585.85 -730.162
162.988 1000.87 1705.16 2211.97 2471.74 2471.91 2212.97 1707.26 1003.65 166.338
-725.984 -1580.55 -2299.26 -2786.92 -2968.22 -2838.24 -2528.6 -2271.71 -2156.2 -2120.91
-2121.13 -2115.02 -2136.18 -2182.03 -2205.74 -2230.4 -2240.01 -2209.98 -2165.79 -2167.59
-2214.73 -2249.4 -2240.28 -2213.09 -2189.81 -2143.94 -2122.87 -2128.98 -2129.65 -2166.19
-2282.24 -2542.52 -2852.13 -2980.8 -2797.46 -2307.76 -1587.2 -731.144 162.328 1000.49
1704.98 2211.9 2471.74 2471.89 2212.88 1707 1003.14 165.504 -727.204 -1582.26
-2301.45 -2789.64 -2971.33 -2841.57 -2531.67 -2274.46 -2158.65 -2123.58 -2123.17 -2116.93
-2138.23 -2183.15 -2207.39 -2231.14 -2237.61 -2205.81 -2163.03 -2165.42 -2214.63 -2249.68
-2241.05 -2215.32 -2191.56 -2145.83 -2123.81 -2130.2 -2131.54 -2167.88 -2284.06 -2543.42
-2853.42 -2982.26 -2798.96 -2309.09 -1588.29 -731.95 161.773 1000.17 1704.81 2211.85
2471.74 2471.87 2212.79 1706.76 1002.68 164.761 -728.282 -1583.72 -2303.29 -2791.85
-2973.73 -2844.02 -2533.87 -2276.44 -2160.46 -2125.22 -2124.81 -2117.62 -2138.99 -2184.47
-2208.02 -2231.18 -2238.71 -2210.56 -2170.01 -2172.33 -2218.89 -2250.6 -2242.41 -2216.98
-2192.99 -2146.98 -2124.61 -2131.35 -2132.33 -2168.57 -2284.92 -2544.61 -2854.74 -2983.6
-2800.25 -2310.21 -1589.21 -732.63 161.306 999.881 1704.67 2211.81 2471.74 2471.85
2212.69 1706.52 1002.27 164.09 -729.234 -1584.99 -2304.85 -2793.67 -2975.6 -2845.75
-2535.24 -2277.54 -2161.36 -2126.43 -2125.52 -2118.76 -2140.72 -2185.57 -2209.14 -2232.27
-2241.44 -2213.72 -2173.69 -2174.9 -2219.9 -2252.92 -2245.58 -2219.92 -2196.39 -2149.5
-2126.84 -2133.32 -2133.43 -2169.61 -2286.07 -2545.85 -2855.98 -2984.81 -2801.35 -2311.16
-1589.98 -733.207 160.913 999.644 1704.56 2211.77 2471.73 2471.83 2212.59 1706.3
1001.87 163.483 -730.109 -1586.14 -2306.3 -2795.33 -2977.42 -2847.52 -2536.87 -2278.91
-2162.79 -2127.92 -2127.53 -2121.24 -2143.36 -2187.68 -2211.56 -2235.24 -2243.96 -2210.72
-2167.09 -2167.5 -2215.64 -2252.33 -2246.62 -2221.11 -2197.57 -2151.05 -2128.18 -2134.95
-2134.7 -2170.75 -2287.29 -2546.59 -2856.79 -2985.72 -2802.22 -2311.96 -1590.62 -733.7
160.58 999.44 1704.46 2211.73 2471.73 2471.8 2212.5 1706.1 1001.52 162.921
-730.922 -1587.25 -2307.74 -2797.17 -2979.73 -2850.33 -2540.01 -2282.02 -2165.79 -2130.41
-2131.12 -2124.29 -2146.17 -2190.64 -2213.82 -2237.42 -2244.28 -2209.92 -2167.59 -2170.08
-2217.2 -2252.75 -2246.39 -2221.97 -2198.52 -2151.55 -2128.85 -2135.82 -2135.45 -2171.47
-2287.88 -2547.42 -2857.66 -2986.6 -2803.04 -2312.66 -1591.18 -734.12 160.294 999.27
1704.37 2211.7 2471.72 2471.77 2212.41 1705.92 1001.19 162.405 -731.654 -1588.22
-2308.99 -2798.67 -2981.42 -2852.08 -2541.65 -2283.52 -2167.06 -2131.78 -2132.3 -2125.53
-2147.66 -2193.27 -2215.93 -2239.68 -2244.69 -2208.46 -2165.05 -2168.19 -2217.68 -2254.37
-2248.41 -2223.44 -2199.5 -2153.29 -2130.71 -2137.32 -2136.64 -2172.15 -2288.59 -2548.12
-2858.54 -2987.39 -2803.81 -2313.27 -1591.69 -734.472 160.041 999.13 1704.3 2211.68
2471.7 2471.74 2212.33 1705.74 1000.88 161.933 -732.322 -1589.14 -2310.17 -2800.15
-2983.16 -2854.07 -2543.64 -2285.36 -2168.65 -2134.02 -2133.63 -2127.37 -2150.89 -2194.84
-2218.47 -2242.83 -2245.93 -2208.79 -2164.39 -2165.99 -2215.24 -2253.6 -2249.23 -2224.57
-2201.1 -2154.88 -2131.83 -2138.75 -2138 -2172.68 -2289.4 -2549.5 -2859.82 -2988.42
-2804.61 -2313.87 -1592.13 -734.784 159.835 999.01 1704.24 2211.65 2471.68 2471.71
2212.24 1705.58 1000.61 161.518 -732.933 -1589.95 -2311.25 -2801.47 -2984.77 -2855.74
-2545.36 -2286.75 -2170.21 -2135.2 -2134.53 -2128.84 -2152.03 -2195.26 -2220.59 -2246.33
-2248.9 -2210.61 -2163.09 -2161.95 -2210.61 -2252.65 -2250.71 -2226.26 -2203.18 -2156.82
-2132.58 -2139.87 -2139.43 -2173.86 -2290.7 -2549.78 -2860.35 -2989.02 -2805.21 -2314.34
-1592.49 -735.03 159.67 998.916 1704.19 2211.63 2471.67 2471.67 2212.17 1705.43
1000.37 161.146 -733.465 -1590.7 -2312.23 -2802.74 -2986.31 -2857.46 -2547.01 -2288.26
-2171.51 -2136.11 -2135.31 -2129.07 -2152.7 -2197.38 -2222.31 -2249.3 -2253.35 -2214.42
-2165.57 -2161.48 -2208.29 -2251.73 -2250.73 -2226.83 -2202.89 -2156.94 -2132.57 -2139.27
-2139.31 -2173.88 -2290.89 -2552.25 -2862.29 -2990.38 -2806.02 -2314.84 -1592.8 -735.227
159.56 998.846 1704.16 2211.61 2471.65 2471.63 2212.09 1705.3 1000.17 160.834
-733.918 -1591.37 -2313.14 -2804.01 -2987.93 -2859.46 -2549 -2290.17 -2172.95 -2137.5
-2136.93 -2129.34 -2152.92 -2199.15 -2225.25 -2251.87 -2255.78 -2219.36 -2174.57 -2174.91
-2219.53 -2258.26 -2252.72 -2226.95 -2201.86 -2155.85 -2133.73 -2140.71 -2140.66 -2176.2
-2293.3 -2552.62 -2862.74 -2990.79 -2806.34 -2315.07 -1592.93 -735.308 159.512 998.818
1704.15 2211.59 2471.62 2471.6 2212.02 1705.21 1000.01 160.601 -734.271 -1591.88
-2313.91 -2805.1 -2989.45 -2861.33 -2550.98 -2291.91 -2174.6 -2138.59 -2138.33 -2130.86
-2153.49 -2200.96 -2226.25 -2252.76 -2259.59 -2225.16 -2179.71 -2180.55 -2225.39 -2261.05
-2252.43 -2225.43 -2200.51 -2154.58 -2132.67 -2140.18 -2140.36 -2176.37 -2293.59 -2553.15
-2863.13 -2991.03 -2806.41 -2315.07 -1592.89 -735.273 159.545 998.834 1704.14 2211.58
2471.6 2471.55 2211.97 1705.14 999.912 160.465 -734.484 -1592.21 -2314.47 -2805.99
-2990.85 -2863.24 -2553.21 -2293.99 -2176.52 -2140.14 -2139.57 -2132.54 -2154.34 -2201.99
-2225.96 -2252.14 -2260.98 -2229.14 -2182.26 -2181.18 -2227.05 -2262.53 -2254.21 -2227.41
-2202.43 -2155.27 -2133.82 -2140.48 -2140.49 -2176.87 -2294.01 -2552.93 -2862.82 -2990.69
-2806.06 -2314.77 -1592.65 -735.09 159.667 998.9 1704.17 2211.57 2471.58 2471.51
2211.93 1705.11 999.888 160.458 -734.511 -1592.26 -2314.67 -2806.41 -2991.77 -2864.65
-2555.22 -2295.91 -2178.62 -2141.52 -2141 -2135.04 -2155.74 -2202.56 -2228.36 -2255.2
-2267.14 -2236.34 -2186.09 -2182.62 -2228.51 -2264.98 -2257.58 -2230.59 -2204.71 -2156.63
-2134.7 -2140.95 -2140.35 -2176.82 -2293.89 -2552.89 -2862.4 -2990.05 -2805.35 -2314.15
-1592.15 -734.749 159.891 999.02 1704.23 2211.58 2471.54 2471.48 2211.91 1705.13
999.951 160.602 -734.286 -1591.93 -2314.29 -2806.06 -2991.68 -2864.95 -2555.99 -2296.84
-2179.5 -2141.6 -2142.61 -2136.09 -2156.06 -2204.9 -2231.04 -2258.84 -2270.63 -2239.71
-2192.1 -2191.38 -2236.43 -2269.58 -2259.84 -2232.46 -2205.5 -2156.35 -2135.24 -2141.67
-2140.4 -2177.05 -2294.03 -2550.51 -2860.1 -2988.04 -2803.81 -2313 -1591.36 -734.206
160.219 999.203 1704.31 2211.58 2471.52 2471.46 2211.91 1705.19 1000.11 160.916
-733.761 -1591.13 -2313.14 -2804.5 -2989.73 -2862.81 -2554.03 -2295.35 -2178.08 -2140.34
-2142.32 -2135.27 -2154.68 -2204.19 -2231.21 -2258.3 -2269.94 -2237.85 -2190.03 -2190.06
-2237.8 -2272.07 -2261.7 -2234.48 -2206.82 -2154.68 -2133.17 -2141.39 -2139.03 -2175.03
-2292.13 -2548.79 -2857.94 -2985.72 -2801.84 -2311.45 -1590.29 -733.483 160.65 999.443
1704.42 2211.6 2471.5 2471.44 2211.92 1705.29 1000.36 161.382 -732.937 -1589.87
-2311.24 -2801.95 -2986.42 -2859.3 -2550.59 -2292.79 -2175.19 -2139.31 -2142.37 -2133.62
-2154.95 -2207.62 -2234.63 -2262.41 -2273.23 -2236.28 -2184.01 -2184.03 -2235.07 -2273.38
-2265.71 -2238.37 -2209.51 -2155.41 -2133.32 -2142.63 -2138.73 -2173.82 -2291.1 -2541.76
-2851.62 -2980.77 -2798.46 -2309.16 -1588.85 -732.564 161.176 999.732 1704.53 2211.63
2471.49 2471.42 2211.96 1705.42 1000.7 161.985 -731.842 -1588.13 -2308.38 -2797.65
-2979.94 -2850.87 -2540.97 -2284.19 -2166.68 -2133.73 -2137.39 -2127.21 -2152.77 -2206.81
-2233.94 -2263.26 -2272.9 -2230.43 -2174.79 -2176.59 -2230.93 -2271.54 -2265.03 -2236.92
-2206.79 -2152.07 -2128.48 -2138.36 -2134.21 -2167.73 -2284.95 -2538.26 -2847.49 -2976.72
-2795.24 -2306.81 -1587.3 -731.575 161.74 1000.03 1704.66 2211.67 2471.47 2471.41
2212 1705.58 1001.06 162.651 -730.667 -1586.24 -2305.46 -2793.45 -2974.39 -2844.66
-2535.1 -2279.31 -2162.25 -2131.91 -2135.83 -2125.67 -2154.47 -2209.78 -2238.15 -2267.6
-2273.01 -2222.18 -2160.24 -2161.42 -2224.6 -2271.78 -2269.32 -2241.73 -2211.15 -2156.08