# vtk DataFile Version 2.0
sampleSurface
ASCII
DATASET POLYDATA
POINTS 9923 float
-0.173197 -1.31557 0
-1.51902e-16 -1.32692 0
-1.83697e-16 -1.5 0
-0.195789 -1.48717 0
-0.154514 -1.17365 0
-1.25608e-16 -1.18378 0
-0.139062 -1.05628 0
-1.03861e-16 -1.06539 0
-0.126282 -0.959207 0
-8.58754e-17 -0.967484 0
-0.115712 -0.878917 0
-7.0999e-17 -0.886501 0
-0.106968 -0.812501 0
-5.86934e-17 -0.819512 0
-0.0997341 -0.757556 0
-4.8513e-17 -0.764093 0
-0.0937486 -0.712091 0
-4.00892e-17 -0.718236 0
-0.0887945 -0.674461 0
-3.3117e-17 -0.680281 0
-0.0846924 -0.643302 0
-2.73439e-17 -0.648853 0
-0.0812938 -0.617488 0
-2.25609e-17 -0.622816 0
-0.0784757 -0.596082 0
-1.85948e-17 -0.601225 0
-0.076136 -0.57831 0
-1.5302e-17 -0.5833 0
-0.0741899 -0.563528 0
-1.25632e-17 -0.568391 0
-0.0725671 -0.551202 0
-1.02794e-17 -0.555958 0
-0.0712088 -0.540885 0
-8.36774e-18 -0.545552 0
-0.0700658 -0.532202 0
-6.75907e-18 -0.536795 0
-0.0690966 -0.524841 0
-5.39514e-18 -0.52937 0
-0.0682663 -0.518534 0
-4.22656e-18 -0.523008 0
-0.0675447 -0.513053 0
-3.21102e-18 -0.51748 0
-0.0669057 -0.508199 0
-2.31175e-18 -0.512585 0
-0.0663262 -0.503798 0
-1.49618e-18 -0.508145 0
-0.0657852 -0.499688 0
-7.34788e-19 -0.504 0
-0.0652631 -0.495722 0
0 -0.5 0
-0.388229 -1.44889 0
-0.343432 -1.2817 0
-0.306384 -1.14344 0
-0.275744 -1.02909 0
-0.250403 -0.934518 0
-0.229443 -0.856294 0
-0.212105 -0.791588 0
-0.197762 -0.738057 0
-0.185893 -0.693762 0
-0.17607 -0.657101 0
-0.167936 -0.626744 0
-0.161197 -0.601594 0
-0.155609 -0.580739 0
-0.150969 -0.563425 0
-0.14711 -0.549024 0
-0.143893 -0.537015 0
-0.141199 -0.526963 0
-0.138933 -0.518504 0
-0.137011 -0.511332 0
-0.135365 -0.505187 0
-0.133934 -0.499847 0
-0.132667 -0.495119 0
-0.131518 -0.49083 0
-0.130445 -0.486827 0
-0.12941 -0.482963 0
-0.574025 -1.38582 0
-0.507789 -1.22591 0
-0.453012 -1.09367 0
-0.407709 -0.984296 0
-0.37024 -0.893839 0
-0.339249 -0.81902 0
-0.313614 -0.757131 0
-0.292406 -0.70593 0
-0.274857 -0.663563 0
-0.260332 -0.628497 0
-0.248305 -0.599462 0
-0.238341 -0.575407 0
-0.230079 -0.55546 0
-0.223219 -0.538899 0
-0.217514 -0.525125 0
-0.212756 -0.513639 0
-0.208774 -0.504024 0
-0.205422 -0.495934 0
-0.202581 -0.489074 0
-0.200147 -0.483197 0
-0.198031 -0.478089 0
-0.196158 -0.473566 0
-0.194459 -0.469465 0
-0.192872 -0.465635 0
-0.191342 -0.46194 0
-0.75 -1.29904 0
-0.663459 -1.14914 0
-0.591888 -1.02518 0
-0.532697 -0.922658 0
-0.483742 -0.837866 0
-0.44325 -0.767732 0
-0.409756 -0.709718 0
-0.382046 -0.661724 0
-0.359118 -0.62201 0
-0.34014 -0.58914 0
-0.324427 -0.561924 0
-0.311408 -0.539374 0
-0.300613 -0.520676 0
-0.29165 -0.505153 0
-0.284196 -0.492241 0
-0.277979 -0.481474 0
-0.272776 -0.472462 0
-0.268397 -0.464878 0
-0.264685 -0.458448 0
-0.261504 -0.452939 0
-0.25874 -0.448151 0
-0.256292 -0.443911 0
-0.254072 -0.440066 0
-0.252 -0.436477 0
-0.25 -0.433013 0
-0.913142 -1.19003 0
-0.807776 -1.05271 0
-0.720638 -0.939153 0
-0.648571 -0.845234 0
-0.588967 -0.767557 0
-0.539667 -0.703308 0
-0.498887 -0.650163 0
-0.46515 -0.606196 0
-0.437234 -0.569815 0
-0.414129 -0.539703 0
-0.394997 -0.51477 0
-0.379146 -0.494113 0
-0.366003 -0.476984 0
-0.355091 -0.462763 0
-0.346015 -0.450935 0
-0.338446 -0.441071 0
-0.332111 -0.432815 0
-0.32678 -0.425868 0
-0.32226 -0.419977 0
-0.318387 -0.41493 0
-0.315022 -0.410544 0
-0.312042 -0.406661 0
-0.309339 -0.403138 0
-0.306816 -0.39985 0
-0.304381 -0.396677 0
-1.06066 -1.06066 0
-0.938272 -0.938272 0
-0.837056 -0.837056 0
-0.753347 -0.753347 0
-0.684114 -0.684114 0
-0.626851 -0.626851 0
-0.579483 -0.579483 0
-0.540295 -0.540295 0
-0.507869 -0.507869 0
-0.481031 -0.481031 0
-0.458809 -0.458809 0
-0.440397 -0.440397 0
-0.425131 -0.425131 0
-0.412456 -0.412456 0
-0.401913 -0.401913 0
-0.393122 -0.393122 0
-0.385763 -0.385763 0
-0.379571 -0.379571 0
-0.374321 -0.374321 0
-0.369823 -0.369823 0
-0.365914 -0.365914 0
-0.362452 -0.362452 0
-0.359313 -0.359313 0
-0.356382 -0.356382 0
-0.353553 -0.353553 0
-1.19003 -0.913142 0
-1.05271 -0.807776 0
-0.939153 -0.720638 0
-0.845234 -0.648571 0
-0.767557 -0.588967 0
-0.703308 -0.539667 0
-0.650163 -0.498887 0
-0.606196 -0.46515 0
-0.569815 -0.437234 0
-0.539703 -0.414129 0
-0.51477 -0.394997 0
-0.494113 -0.379146 0
-0.476984 -0.366003 0
-0.462763 -0.355091 0
-0.450935 -0.346015 0
-0.441071 -0.338446 0
-0.432815 -0.332111 0
-0.425868 -0.32678 0
-0.419977 -0.32226 0
-0.41493 -0.318387 0
-0.410544 -0.315022 0
-0.406661 -0.312042 0
-0.403138 -0.309339 0
-0.39985 -0.306816 0
-0.396677 -0.304381 0
-1.29904 -0.75 0
-1.14914 -0.663459 0
-1.02518 -0.591888 0
-0.922658 -0.532697 0
-0.837866 -0.483742 0
-0.767732 -0.44325 0
-0.709718 -0.409756 0
-0.661724 -0.382046 0
-0.62201 -0.359118 0
-0.58914 -0.34014 0
-0.561924 -0.324427 0
-0.539374 -0.311408 0
-0.520676 -0.300613 0
-0.505153 -0.29165 0
-0.492241 -0.284196 0
-0.481474 -0.277979 0
-0.472462 -0.272776 0
-0.464878 -0.268397 0
-0.458448 -0.264685 0
-0.452939 -0.261504 0
-0.448151 -0.25874 0
-0.443911 -0.256292 0
-0.440066 -0.254072 0
-0.436477 -0.252 0
-0.433013 -0.25 0
-1.38582 -0.574025 0
-1.22591 -0.507789 0
-1.09367 -0.453012 0
-0.984296 -0.407709 0
-0.893839 -0.37024 0
-0.81902 -0.339249 0
-0.757131 -0.313614 0
-0.70593 -0.292406 0
-0.663563 -0.274857 0
-0.628497 -0.260332 0
-0.599462 -0.248305 0
-0.575407 -0.238341 0
-0.55546 -0.230079 0
-0.538899 -0.223219 0
-0.525125 -0.217514 0
-0.513639 -0.212756 0
-0.504024 -0.208774 0
-0.495934 -0.205422 0
-0.489074 -0.202581 0
-0.483197 -0.200147 0
-0.478089 -0.198031 0
-0.473566 -0.196158 0
-0.469465 -0.194459 0
-0.465635 -0.192872 0
-0.46194 -0.191342 0
-1.44889 -0.388229 0
-1.2817 -0.343432 0
-1.14344 -0.306384 0
-1.02909 -0.275744 0
-0.934518 -0.250403 0
-0.856294 -0.229443 0
-0.791588 -0.212105 0
-0.738057 -0.197762 0
-0.693762 -0.185893 0
-0.657101 -0.17607 0
-0.626744 -0.167936 0
-0.601594 -0.161197 0
-0.580739 -0.155609 0
-0.563425 -0.150969 0
-0.549024 -0.14711 0
-0.537015 -0.143893 0
-0.526963 -0.141199 0
-0.518504 -0.138933 0
-0.511332 -0.137011 0
-0.505187 -0.135365 0
-0.499847 -0.133934 0
-0.495119 -0.132667 0
-0.49083 -0.131518 0
-0.486827 -0.130445 0
-0.482963 -0.12941 0
-1.48717 -0.195789 0
-1.31557 -0.173197 0
-1.17365 -0.154514 0
-1.05628 -0.139062 0
-0.959207 -0.126282 0
-0.878917 -0.115712 0
-0.812501 -0.106968 0
-0.757556 -0.0997341 0
-0.712091 -0.0937486 0
-0.674461 -0.0887945 0
-0.643302 -0.0846924 0
-0.617488 -0.0812938 0
-0.596082 -0.0784757 0
-0.57831 -0.076136 0
-0.563528 -0.0741899 0
-0.551202 -0.0725671 0
-0.540885 -0.0712088 0
-0.532202 -0.0700658 0
-0.524841 -0.0690966 0
-0.518534 -0.0682663 0
-0.513053 -0.0675447 0
-0.508199 -0.0669057 0
-0.503798 -0.0663262 0
-0.499688 -0.0657852 0
-0.495722 -0.0652631 0
-1.5 9.18485e-17 0
-1.32692 1.11022e-16 0
-1.18378 1.11022e-16 0
-1.06539 1.11022e-16 0
-0.967484 5.55112e-17 0
-0.886501 5.55112e-17 0
-0.819512 5.55112e-17 0
-0.764093 5.55112e-17 0
-0.718236 5.55112e-17 0
-0.680281 5.55112e-17 0
-0.648853 5.55112e-17 0
-0.622816 5.55112e-17 0
-0.601225 5.55112e-17 0
-0.5833 5.55112e-17 0
-0.568391 5.55112e-17 0
-0.555958 5.55112e-17 0
-0.545552 5.55112e-17 0
-0.536795 5.55112e-17 0
-0.52937 5.55112e-17 0
-0.523008 5.55112e-17 0
-0.51748 5.55112e-17 0
-0.512585 5.55112e-17 0
-0.508145 5.55112e-17 0
-0.504 5.55112e-17 0
-0.5 3.06162e-17 0
-1.48717 0.195789 0
-1.31557 0.173197 0
-1.17365 0.154514 0
-1.05628 0.139062 0
-0.959207 0.126282 0
-0.878917 0.115712 0
-0.812501 0.106968 0
-0.757556 0.0997341 0
-0.712091 0.0937486 0
-0.674461 0.0887945 0
-0.643302 0.0846924 0
-0.617488 0.0812938 0
-0.596082 0.0784757 0
-0.57831 0.076136 0
-0.563528 0.0741899 0
-0.551202 0.0725671 0
-0.540885 0.0712088 0
-0.532202 0.0700658 0
-0.524841 0.0690966 0
-0.518534 0.0682663 0
-0.513053 0.0675447 0
-0.508199 0.0669057 0
-0.503798 0.0663262 0
-0.499688 0.0657852 0
-0.495722 0.0652631 0
-1.44889 0.388229 0
-1.2817 0.343432 0
-1.14344 0.306384 0
-1.02909 0.275744 0
-0.934518 0.250403 0
-0.856294 0.229443 0
-0.791588 0.212105 0
-0.738057 0.197762 0
-0.693762 0.185893 0
-0.657101 0.17607 0
-0.626744 0.167936 0
-0.601594 0.161197 0
-0.580739 0.155609 0
-0.563425 0.150969 0
-0.549024 0.14711 0
-0.537015 0.143893 0
-0.526963 0.141199 0
-0.518504 0.138933 0
-0.511332 0.137011 0
-0.505187 0.135365 0
-0.499847 0.133934 0
-0.495119 0.132667 0
-0.49083 0.131518 0
-0.486827 0.130445 0
-0.482963 0.12941 0
-1.38582 0.574025 0
-1.22591 0.507789 0
-1.09367 0.453012 0
-0.984296 0.407709 0
-0.893839 0.37024 0
-0.81902 0.339249 0
-0.757131 0.313614 0
-0.70593 0.292406 0
-0.663563 0.274857 0
-0.628497 0.260332 0
-0.599462 0.248305 0
-0.575407 0.238341 0
-0.55546 0.230079 0
-0.538899 0.223219 0
-0.525125 0.217514 0
-0.513639 0.212756 0
-0.504024 0.208774 0
-0.495934 0.205422 0
-0.489074 0.202581 0
-0.483197 0.200147 0
-0.478089 0.198031 0
-0.473566 0.196158 0
-0.469465 0.194459 0
-0.465635 0.192872 0
-0.46194 0.191342 0
-1.29904 0.75 0
-1.14914 0.663459 0
-1.02518 0.591888 0
-0.922658 0.532697 0
-0.837866 0.483742 0
-0.767732 0.44325 0
-0.709718 0.409756 0
-0.661724 0.382046 0
-0.62201 0.359118 0
-0.58914 0.34014 0
-0.561924 0.324427 0
-0.539374 0.311408 0
-0.520676 0.300613 0
-0.505153 0.29165 0
-0.492241 0.284196 0
-0.481474 0.277979 0
-0.472462 0.272776 0
-0.464878 0.268397 0
-0.458448 0.264685 0
-0.452939 0.261504 0
-0.448151 0.25874 0
-0.443911 0.256292 0
-0.440066 0.254072 0
-0.436477 0.252 0
-0.433013 0.25 0
-1.19003 0.913142 0
-1.05271 0.807776 0
-0.939153 0.720638 0
-0.845234 0.648571 0
-0.767557 0.588967 0
-0.703308 0.539667 0
-0.650163 0.498887 0
-0.606196 0.46515 0
-0.569815 0.437234 0
-0.539703 0.414129 0
-0.51477 0.394997 0
-0.494113 0.379146 0
-0.476984 0.366003 0
-0.462763 0.355091 0
-0.450935 0.346015 0
-0.441071 0.338446 0
-0.432815 0.332111 0
-0.425868 0.32678 0
-0.419977 0.32226 0
-0.41493 0.318387 0
-0.410544 0.315022 0
-0.406661 0.312042 0
-0.403138 0.309339 0
-0.39985 0.306816 0
-0.396677 0.304381 0
-1.06066 1.06066 0
-0.938272 0.938272 0
-0.837056 0.837056 0
-0.753347 0.753347 0
-0.684114 0.684114 0
-0.626851 0.626851 0
-0.579483 0.579483 0
-0.540295 0.540295 0
[...]
CELL_DATA 19532
FIELD attributes 1
p 1 19532 float
-578.469 -578.469 -709.215 -709.215 -844.721 -844.721 -990.439 -990.439 -1144.13 -1144.13
-1301.97 -1301.97 -1460.98 -1460.98 -1618.08 -1618.08 -1768.55 -1768.55 -1908.01 -1908.01
-2036.39 -2036.39 -2156.12 -2156.12 -2265.41 -2265.41 -2361.38 -2361.38 -2444.06 -2444.06
-2514.5 -2514.5 -2572.77 -2572.77 -2619.68 -2619.68 -2654.85 -2654.85 -2678.28 -2678.28
-2692.48 -2692.48 -2700.35 -2700.35 -2704.72 -2704.72 -2707.14 -2707.14 -455.846 -455.846
-570.958 -570.958 -695.312 -695.312 -833.355 -833.355 -985.768 -985.768 -1151.24 -1151.24
-1325.04 -1325.04 -1503.34 -1503.34 -1683.32 -1683.32 -1862.35 -1862.35 -2036.21 -2036.21
-2199.45 -2199.45 -2349.57 -2349.57 -2488.31 -2488.31 -2617 -2617 -2734.63 -2734.63
-2839.32 -2839.32 -2929.88 -2929.88 -3004.61 -3004.61 -3060.94 -3060.94 -3098.3 -3098.3
-3119.89 -3119.89 -3130.67 -3130.67 -3135.54 -3135.54 -324.268 -324.268 -414.157 -414.157
-522.728 -522.728 -647.891 -647.891 -790.296 -790.296 -949.364 -949.364 -1123.59 -1123.59
-1310.69 -1310.69 -1505.41 -1505.41 -1702.12 -1702.12 -1897.27 -1897.27 -2088.77 -2088.77
-2273.47 -2273.47 -2446.71 -2446.71 -2605.25 -2605.25 -2749.51 -2749.51 -2881.57 -2881.57
-3001.36 -3001.36 -3106.82 -3106.82 -3193.91 -3193.91 -3257.95 -3257.95 -3297.84 -3297.84
-3318 -3318 -3325.57 -3325.57 -174.981 -174.981 -242.876 -242.876 -326.994 -326.994
-429.869 -429.869 -552.89 -552.89 -696.072 -696.072 -857.422 -857.422 -1033.51 -1033.51
-1221.18 -1221.18 -1417.29 -1417.29 -1616.58 -1616.58 -1812.47 -1812.47 -2000.32 -2000.32
-2178.7 -2178.7 -2346.89 -2346.89 -2502.95 -2502.95 -2645.08 -2645.08 -2773.24 -2773.24
-2887.82 -2887.82 -2986.66 -2986.66 -3064.92 -3064.92 -3118 -3118 -3146.12 -3146.12
-3156.74 -3156.74 -15.7096 -15.7096 -56.3208 -56.3208 -111.378 -111.378 -184.787 -184.787
-277.92 -277.92 -391.119 -391.119 -524.188 -524.188 -675.632 -675.632 -841.412 -841.412
-1015.83 -1015.83 -1194.06 -1194.06 -1372.74 -1372.74 -1548.21 -1548.21 -1716.01 -1716.01
-1872.58 -1872.58 -2016.91 -2016.91 -2149.63 -2149.63 -2270.93 -2270.93 -2380.68 -2380.68
-2477.57 -2477.57 -2557.53 -2557.53 -2614.84 -2614.84 -2646.82 -2646.82 -2659.21 -2659.21
150.239 150.239 139.122 139.122 117.835 117.835 81.365 81.365 27.0983 27.0983
-46.8391 -46.8391 -140.551 -140.551 -251.973 -251.973 -378.133 -378.133 -516.022 -516.022
-661.565 -661.565 -809.267 -809.267 -954.251 -954.251 -1093.79 -1093.79 -1226.38 -1226.38
-1350.35 -1350.35 -1464.42 -1464.42 -1568.35 -1568.35 -1663.28 -1663.28 -1748.57 -1748.57
-1820.28 -1820.28 -1873.91 -1873.91 -1905.38 -1905.38 -1917.9 -1917.9 314.415 314.415
335.487 335.487 350.91 350.91 355.173 355.173 344.527 344.527 316.885 316.885
271.545 271.545 208.642 208.642 129.68 129.68 37.9821 37.9821 -62.2754 -62.2754
-167.406 -167.406 -274.331 -274.331 -379.89 -379.89 -481.113 -481.113 -576.185 -576.185
-664.491 -664.491 -745.869 -745.869 -821.199 -821.199 -889.721 -889.721 -948.258 -948.258
-993.22 -993.22 -1020.6 -1020.6 -1031.7 -1031.7 469.579 469.579 522.49 522.49
574.761 574.761 620.65 620.65 655.502 655.502 676.494 676.494 681.712 681.712
670.405 670.405 643.416 643.416 602.581 602.581 550.343 550.343 489.858 489.858
424.613 424.613 357.642 357.642 291.121 291.121 226.634 226.634 165.402 165.402
108.077 108.077 54.6899 54.6899 5.74454 5.74454 -37.4424 -37.4424 -71.5688 -71.5688
-92.6818 -92.6818 -101.227 -101.227 606.908 606.908 689.746 689.746 776.55 776.55
861.67 861.67 939.516 939.516 1006.41 1006.41 1059.92 1059.92 1098.36 1098.36
1121.06 1121.06 1128.61 1128.61 1122.84 1122.84 1106.34 1106.34 1081.72 1081.72
1051.5 1051.5 1017.99 1017.99 983.164 983.164 948.365 948.365 914.507 914.507
881.983 881.983 851.216 851.216 823.41 823.41 801.027 801.027 786.952 786.952
781.464 781.464 719.212 719.212 827.163 827.163 943.231 943.231 1061.6 1061.6
1176.25 1176.25 1282.99 1282.99 1378.18 1378.18 1459.19 1459.19 1524.47 1524.47
1573.77 1573.77 1608.04 1608.04 1629.03 1629.03 1638.98 1638.98 1640.33 1640.33
1635.37 1635.37 1626.05 1626.05 1613.85 1613.85 1600.08 1600.08 1585.43 1585.43
1570.54 1570.54 1556.38 1556.38 1544.59 1544.59 1537.26 1537.26 1534.8 1534.8
801.607 801.607 928.039 928.039 1065.32 1065.32 1208.2 1208.2 1350.2 1350.2
1486.43 1486.43 1612.98 1612.98 1725.99 1725.99 1823.21 1823.21 1903.67 1903.67
1967.71 1967.71 2016.65 2016.65 2052.45 2052.45 2077.34 2077.34 2093.55 2093.55
2103.1 2103.1 2107.78 2107.78 2108.95 2108.95 2107.54 2107.54 2104.42 2104.42
2100.44 2100.44 2096.75 2096.75 2094.69 2094.69 2094.66 2094.66 848.863 848.863
985.432 985.432 1134.65 1134.65 1291.3 1291.3 1448.55 1448.55 1601.15 1601.15
1744.86 1744.86 1876.14 1876.14 1991.87 1991.87 2090.32 2090.32 2171.48 2171.48
2236.48 2236.48 2287.11 2287.11 2325.53 2325.53 2353.92 2353.92 2374.44 2374.44
2388.87 2388.87 2398.62 2398.62 2404.9 2404.9 2408.72 2408.72 2410.86 2410.86
2412.02 2412.02 2413.08 2413.08 2414.4 2414.4 856.668 856.668 995.636 995.636
1147.13 1147.13 1306.19 1306.19 1466.16 1466.16 1621.69 1621.69 1768.37 1768.37
1902.56 1902.56 2021.51 2021.51 2123.34 2123.34 2207.78 2207.78 2275.88 2275.88
2329.43 2329.43 2370.51 2370.51 2401.31 2401.31 2424.02 2424.02 2440.27 2440.27
2451.63 2451.63 2459.36 2459.36 2464.41 2464.41 2467.56 2467.56 2469.61 2469.61
2471.41 2471.41 2473.18 2473.18 828.226 828.226 959.88 959.88 1103.49 1103.49
1253.41 1253.41 1403.21 1403.21 1548.03 1548.03 1683.81 1683.81 1806.68 1806.68
1913.86 1913.86 2004.19 2004.19 2077.8 2077.8 2135.86 2135.86 2180.21 2180.21
2212.96 2212.96 2236.33 2236.33 2252.31 2252.31 2262.88 2262.88 2269.27 2269.27
2272.58 2272.58 2273.71 2273.71 2273.47 2273.47 2272.77 2272.77 2272.69 2272.69
2273.57 2273.57 763.607 763.607 880.369 880.369 1006.56 1006.56 1136.48 1136.48
1264.03 1264.03 1384.89 1384.89 1495.19 1495.19 1591.86 1591.86 1673.12 1673.12
1738.47 1738.47 1788.49 1788.49 1824.62 1824.62 1848.85 1848.85 1863.42 1863.42
1870.48 1870.48 1871.94 1871.94 1869.43 1869.43 1864.33 1864.33 1857.45 1857.45
1849.54 1849.54 1841.48 1841.48 1834.6 1834.6 1830.47 1830.47 1829.45 1829.45
666.615 666.615 761.721 761.721 862.742 862.742 963.777 963.777 1059.25 1059.25
1145.38 1145.38 1219.21 1219.21 1278.87 1278.87 1323.42 1323.42 1353.06 1353.06
1369.12 1369.12 1373.52 1373.52 1368.49 1368.49 1356.45 1356.45 1339.68 1339.68
1320.01 1320.01 1298.73 1298.73 1277 1277 1255.38 1255.38 1234.45 1234.45
1215.26 1215.26 1199.69 1199.69 1190.03 1190.03 1186.49 1186.49 544.603 544.603
612.444 612.444 682.262 682.262 748.003 748.003 804.781 804.781 849.459 849.459
880.021 880.021 895.583 895.583 896.35 896.35 883.311 883.311 858.504 858.504
824.831 824.831 785.005 785.005 741.223 741.223 695.599 695.599 650.125 650.125
606.182 606.182 564.38 564.38 524.889 524.889 488.349 488.349 455.979 455.979
430.432 430.432 414.666 414.666 408.463 408.463 401.994 401.994 440.743 440.743
476.718 476.718 504.281 504.281 519.384 519.384 520.036 520.036 504.952 504.952
473.855 473.855 428.201 428.201 370.543 370.543 303.319 303.319 229.221 229.221
151.837 151.837 74.5577 74.5577 -0.620739 -0.620739 -72.6759 -72.6759 -140.635 -140.635
-203.676 -203.676 -262.243 -262.243 -315.626 -315.626 -361.064 -361.064 -395.761 -395.761
-416.862 -416.862 -425.26 -425.26 248.572 248.572 257.05 257.05 258.722 258.722
248.53 248.53 223.147 223.147 181.219 181.219 122.55 122.55 48.1774 48.1774
-40.5425 -40.5425 -140.712 -140.712 -247.593 -247.593 -357.138 -357.138 -467.3 -467.3
-576.069 -576.069 -680.248 -680.248 -777.298 -777.298 -866.739 -866.739 -948.808 -948.808
-1024.52 -1024.52 -1092.6 -1092.6 -1149.08 -1149.08 -1190.85 -1190.85 -1215.43 -1215.43
-1225.11 -1225.11 90.4674 90.4674 71.0366 71.0366 40.8389 40.8389 -3.80454 -3.80454
-64.7783 -64.7783 -142.906 -142.906 -238.643 -238.643 -349.621 -349.621 -471.914 -471.914
-602.972 -602.972 -740.895 -740.895 -881.041 -881.041 -1017.39 -1017.39 -1147.08 -1147.08
-1269.87 -1269.87 -1385.43 -1385.43 -1492.52 -1492.52 -1589.85 -1589.85 -1677.35 -1677.35
-1754.4 -1754.4 -1817.07 -1817.07 -1861.45 -1861.45 -1886.19 -1886.19 -1895.74 -1895.74
-64.6085 -64.6085 -110.163 -110.163 -167.783 -167.783 -240.924 -240.924 -330.326 -330.326
-435.588 -435.588 -555.663 -555.663 -689.715 -689.715 -835.108 -835.108 -986.366 -986.366
-1138.41 -1138.41 -1289.36 -1289.36 -1437.93 -1437.93 -1581.33 -1581.33 -1715.53 -1715.53
-1837.89 -1837.89 -1948.97 -1948.97 -2050.11 -2050.11 -2140.76 -2140.76 -2218.18 -2218.18
-2278.3 -2278.3 -2318.23 -2318.23 -2339.37 -2339.37 -2347.46 -2347.46 -212.25 -212.25
-279.029 -279.029 -360.42 -360.42 -454.497 -454.497 -562.331 -562.331 -684.226 -684.226
-818.408 -818.408 -961.226 -961.226 -1109.92 -1109.92 -1262.96 -1262.96 -1417.67 -1417.67
-1568.92 -1568.92 -1711.21 -1711.21 -1843 -1843 -1965.8 -1965.8 -2080.29 -2080.29
-2185.2 -2185.2 -2278.64 -2278.64 -2358.9 -2358.9 -2423.16 -2423.16 -2468.9 -2468.9
-2497.06 -2497.06 -2511.44 -2511.44 -2517.24 -2517.24 -345.757 -345.757 -435.403 -435.403
-533.248 -533.248 -642.345 -642.345 -761.364 -761.364 -888.462 -888.462 -1022.69 -1022.69
-1162.98 -1162.98 -1305.87 -1305.87 -1445.57 -1445.57 -1578.12 -1578.12 -1704.55 -1704.55
-1825.17 -1825.17 -1936.99 -1936.99 -2038.16 -2038.16 -2128.4 -2128.4 -2207.49 -2207.49
-2274.7 -2274.7 -2328.18 -2328.18 -2366.83 -2366.83 -2391.9 -2391.9 -2406.26 -2406.26
-2413.85 -2413.85 -2417.65 -2417.65 -471.81 -471.81 -577.12 -577.12 -688.842 -688.842
-805.274 -805.274 -926.726 -926.726 -1052.18 -1052.18 -1179.25 -1179.25 -1303.61 -1303.61
-1423.01 -1423.01 -1539.64 -1539.64 -1650.92 -1650.92 -1750.82 -1750.82 -1838.9 -1838.9
-1917.87 -1917.87 -1987.77 -1987.77 -2046.84 -2046.84 -2095.29 -2095.29 -2132.61 -2132.61
-2158.3 -2158.3 -2174.6 -2174.6 -2184.17 -2184.17 -2189.61 -2189.61 -2192.58 -2192.58
-2194.04 -2194.04 -578.292 -578.292 -702.873 -702.873 -825.438 -825.438 -949.945 -949.945
-1071.4 -1071.4 -1188.47 -1188.47 -1302.08 -1302.08 -1416.34 -1416.34 -1525.24 -1525.24
-1619.56 -1619.56 -1703.76 -1703.76 -1782.55 -1782.55 -1850.65 -1850.65 -1905.13 -1905.13
-1948.89 -1948.89 -1982.71 -1982.71 -2006.18 -2006.18 -2021.17 -2021.17 -2029.8 -2029.8
-2033.91 -2033.91 -2035.69 -2035.69 -2036.65 -2036.65 -2037.33 -2037.33 -2037.81 -2037.81
-690.075 -690.075 -828.212 -828.212 -961.891 -961.891 -1088.68 -1088.68 -1207.24 -1207.24
-1323.79 -1323.79 -1434.2 -1434.2 -1529.2 -1529.2 -1619.78 -1619.78 -1711.3 -1711.3
-1792.31 -1792.31 -1857.22 -1857.22 -1907.54 -1907.54 -1943.73 -1943.73 -1966.38 -1966.38
-1978.78 -1978.78 -1984.68 -1984.68 -1987.03 -1987.03 -1987.98 -1987.98 -1988.26 -1988.26
-1988.32 -1988.32 -1988.48 -1988.48 -1988.72 -1988.72 -1988.84 -1988.84 -771.855 -771.855
-934.888 -934.888 -1088.75 -1088.75 -1231.73 -1231.73 -1356.34 -1356.34 -1458.44 -1458.44
-1551.4 -1551.4 -1649.56 -1649.56 -1744.32 -1744.32 -1831.46 -1831.46 -1903.21 -1903.21
-1952.17 -1952.17 -1980.87 -1980.87 -1993.59 -1993.59 -1997.79 -1997.79 -1998.24 -1998.24
-1997.48 -1997.48 -1996.49 -1996.49 -1995.93 -1995.93 -1995.82 -1995.82 -1995.83 -1995.83
-1995.83 -1995.83 -1995.81 -1995.81 -1995.8 -1995.8 -830.075 -830.075 -1042.69 -1042.69
-1240.48 -1240.48 -1401.13 -1401.13 -1526.28 -1526.28 -1628.73 -1628.73 -1709.28 -1709.28
-1773.74 -1773.74 -1834.25 -1834.25 -1891.31 -1891.31 -1940.62 -1940.62 -1970.97 -1970.97
-1984.79 -1984.79 -1988.34 -1988.34 -1986.8 -1986.8 -1984.94 -1984.94 -1983.61 -1983.61
-1982.74 -1982.74 -1982.19 -1982.19 -1981.85 -1981.85 -1981.66 -1981.66 -1981.52 -1981.52
-1981.38 -1981.38 -1981.23 -1981.23 -864.706 -864.706 -1156.67 -1156.67 -1418.94 -1418.94
-1638.02 -1638.02 -1773.33 -1773.33 -1835.73 -1835.73 -1852.29 -1852.29 -1854.66 -1854.66
-1865.91 -1865.91 -1891.52 -1891.52 -1916.98 -1916.98 -1931.67 -1931.67 -1937.72 -1937.72
-1940.4 -1940.4 -1941.46 -1941.46 -1941.71 -1941.71 -1941.69 -1941.69 -1941.65 -1941.65
-1941.65 -1941.65 -1941.68 -1941.68 -1941.7 -1941.7 -1941.66 -1941.66 -1941.52 -1941.52
-1941.31 -1941.31 -801.466 -801.466 -1260.32 -1260.32 -1678.02 -1678.02 -1973.85 -1973.85
-2089.13 -2089.13 -2066.71 -2066.71 -1994.79 -1994.79 -1930.99 -1930.99 -1900.62 -1900.62
-1899.37 -1899.37 -1907.86 -1907.86 -1916.87 -1916.87 -1924.18 -1924.18 -1929.18 -1929.18
-1931.96 -1931.96 -1933.39 -1933.39 -1934.22 -1934.22 -1934.83 -1934.83 -1935.29 -1935.29
-1935.66 -1935.66 -1936 -1936 -1936.27 -1936.27 -1936.44 -1936.44 -1936.53 -1936.53
-683.324 -683.324 -1365.31 -1365.31 -2034.66 -2034.66 -2433.36 -2433.36 -2494.12 -2494.12
-2373.43 -2373.43 -2215.41 -2215.41 -2104.93 -2104.93 -2041.51 -2041.51 -2004.31 -2004.31
-1981.62 -1981.62 -1966.18 -1966.18 -1954.69 -1954.69 -1946.27 -1946.27 -1940.47 -1940.47
-1936.68 -1936.68 -1934.41 -1934.41 -1933.14 -1933.14 -1932.43 -1932.43 -1932.05 -1932.05
-1931.98 -1931.98 -1932.12 -1932.12 -1932.36 -1932.36 -1932.62 -1932.62 -231.763 -231.763
-1379.86 -1379.86 -2422.15 -2422.15 -2851.02 -2851.02 -2861.23 -2861.23 -2675.66 -2675.66
-2467.84 -2467.84 -2288.87 -2288.87 -2154.05 -2154.05 -2061.02 -2061.02 -2000.77 -2000.77
-1963.19 -1963.19 -1939.48 -1939.48 -1924.38 -1924.38 -1915.02 -1915.02 -1909.42 -1909.42
-1906.02 -1906.02 -1904.15 -1904.15 -1903.26 -1903.26 -1902.94 -1902.94 -1902.94 -1902.94
-1903.07 -1903.07 -1903.22 -1903.22 -1903.39 -1903.39 260.534 260.534 -1247.14 -1247.14
-2478.19 -2478.19 -2878.76 -2878.76 -2895.46 -2895.46 -2705.35 -2705.35 -2479.31 -2479.31
-2283.8 -2283.8 -2132.86 -2132.86 -2024.63 -2024.63 -1951.85 -1951.85 -1905.26 -1905.26
-1875.71 -1875.71 -1856.2 -1856.2 -1843.07 -1843.07 -1834.65 -1834.65 -1829.8 -1829.8
-1827.16 -1827.16 -1825.87 -1825.87 -1825.36 -1825.36 -1825.23 -1825.23 -1825.12 -1825.12
-1824.78 -1824.78 -1824.28 -1824.28 -406.581 -406.581 -1394.01 -1394.01 -2347.6 -2347.6
-2656.79 -2656.79 -2619.66 -2619.66 -2451.85 -2451.85 -2277.08 -2277.08 -2129.22 -2129.22
-2014.02 -2014.02 -1930.54 -1930.54 -1872.45 -1872.45 -1832.95 -1832.95 -1806.48 -1806.48
-1788.89 -1788.89 -1777.67 -1777.67 -1771.05 -1771.05 -1767.69 -1767.69 -1766.6 -1766.6
-1766.95 -1766.95 -1768.09 -1768.09 -1769.58 -1769.58 -1770.64 -1770.64 -1770.6 -1770.6
-1769.87 -1769.87 -1187.05 -1187.05 -1872.45 -1872.45 -2335.72 -2335.72 -2439.07 -2439.07
-2361.21 -2361.21 -2228.06 -2228.06 -2103.95 -2103.95 -2009.6 -2009.6 -1941.11 -1941.11
-1892.16 -1892.16 -1858.26 -1858.26 -1835.76 -1835.76 -1821.56 -1821.56 -1813.25 -1813.25
-1809.26 -1809.26 -1808.46 -1808.46 -1809.91 -1809.91 -1812.82 -1812.82 -1816.42 -1816.42
-1820.35 -1820.35 -1823.86 -1823.86 -1826.08 -1826.08 -1827.01 -1827.01 -1827.11 -1827.11
-2509.16 -2509.16 -2866.44 -2866.44 -2869.89 -2869.89 -2661.48 -2661.48 -2409.45 -2409.45
-2218.19 -2218.19 -2093.37 -2093.37 -2014.6 -2014.6 -1964.81 -1964.81 -1932.74 -1932.74
-1913.72 -1913.72 -1903.93 -1903.93 -1900.07 -1900.07 -1900.05 -1900.05 -1902.7 -1902.7
-1907.28 -1907.28 -1913.1 -1913.1 -1919.61 -1919.61 -1926.24 -1926.24 -1932.23 -1932.23
-1936.98 -1936.98 -1940.29 -1940.29 -1942.27 -1942.27 -1943.24 -1943.24 -3745.96 -3745.96
-3943.23 -3943.23 -3396.98 -3396.98 -2881.66 -2881.66 -2572.88 -2572.88 -2345.65 -2345.65
-2196.24 -2196.24 -2110.9 -2110.9 -2055.52 -2055.52 -2020.01 -2020.01 -1999.65 -1999.65
-1988.96 -1988.96 -1984.45 -1984.45 -1983.98 -1983.98 -1986.32 -1986.32 -1990.73 -1990.73
-1996.37 -1996.37 -2002.44 -2002.44 -2008.27 -2008.27 -2013.22 -2013.22 -2016.97 -2016.97
-2019.61 -2019.61 -2021.4 -2021.4 -2022.62 -2022.62 -4017.34 -4017.34 -4027.73 -4027.73
-3330.86 -3330.86 -2810.06 -2810.06 -2519.1 -2519.1 -2315.2 -2315.2 -2181.22 -2181.22
-2097.87 -2097.87 -2040.7 -2040.7 -2004.14 -2004.14 -1983.57 -1983.57 -1973.03 -1973.03
-1969.59 -1969.59 -1971.28 -1971.28 -1976.48 -1976.48 -1983.68 -1983.68 -1991.34 -1991.34
-1998.08 -1998.08 -2003.19 -2003.19 -2006.69 -2006.69 -2009 -2009 -2010.5 -2010.5
-2011.51 -2011.51 -2012.27 -2012.27 -3462.24 -3462.24 -3269.25 -3269.25 -2729.52 -2729.52
-2389.31 -2389.31 -2169.79 -2169.79 -2027.54 -2027.54 -1944.14 -1944.14 -1886.59 -1886.59
-1855.06 -1855.06 -1840.58 -1840.58 -1839.49 -1839.49 -1848.12 -1848.12 -1863.64 -1863.64
-1882.06 -1882.06 -1900.18 -1900.18 -1915.45 -1915.45 -1926.8 -1926.8 -1934.53 -1934.53
-1939.35 -1939.35 -1942.02 -1942.02 -1943.52 -1943.52 -1944.43 -1944.43 -1944.73 -1944.73
-1944.65 -1944.65 -2703.1 -2703.1 -2665.73 -2665.73 -2368.53 -2368.53 -2121.94 -2121.94
-1878.92 -1878.92 -1718.78 -1718.78 -1662.57 -1662.57 -1655.91 -1655.91 -1672.05 -1672.05
-1700.23 -1700.23 -1731.54 -1731.54 -1762.78 -1762.78 -1791.77 -1791.77 -1815.72 -1815.72
-1833.93 -1833.93 -1846.76 -1846.76 -1855.14 -1855.14 -1860.25 -1860.25 -1863.18 -1863.18
-1864.69 -1864.69 -1865.22 -1865.22 -1865.26 -1865.26 -1865.04 -1865.04 -1864.66 -1864.66
-1966.14 -1966.14 -2082.43 -2082.43 -2025.23 -2025.23 -1893.88 -1893.88 -1728.42 -1728.42
-1624.52 -1624.52 -1605.56 -1605.56 -1634.54 -1634.54 -1680.59 -1680.59 -1729.09 -1729.09
-1769.7 -1769.7 -1799.6 -1799.6 -1820.09 -1820.09 -1833.46 -1833.46 -1842.09 -1842.09
-1847.61 -1847.61 -1851.04 -1851.04 -1853.14 -1853.14 -1854.49 -1854.49 -1855.38 -1855.38
-1855.87 -1855.87 -1856.01 -1856.01 -1855.86 -1855.86 -1855.52 -1855.52 -1552.78 -1552.78
-1703.34 -1703.34 -1760.35 -1760.35 -1746.25 -1746.25 -1711.38 -1711.38 -1720.62 -1720.62
-1782.99 -1782.99 -1848.12 -1848.12 -1874.85 -1874.85 -1881.59 -1881.59 -1886.52 -1886.52
-1892.72 -1892.72 -1898.92 -1898.92 -1904.18 -1904.18 -1907.92 -1907.92 -1910.62 -1910.62
-1912.53 -1912.53 -1913.8 -1913.8 -1914.65 -1914.65 -1915.21 -1915.21 -1915.54 -1915.54
-1915.7 -1915.7 -1915.76 -1915.76 -1915.79 -1915.79 -1310.7 -1310.7 -1491.3 -1491.3
-1612.29 -1612.29 -1696.33 -1696.33 -1775.68 -1775.68 -1879.77 -1879.77 -2007.5 -2007.5
-2090.77 -2090.77 -2083.02 -2083.02 -2029.16 -2029.16 -1984.94 -1984.94 -1964.38 -1964.38
-1957.84 -1957.84 -1956.11 -1956.11 -1955.64 -1955.64 -1955.39 -1955.39 -1955.2 -1955.2
-1954.94 -1954.94 -1954.62 -1954.62 -1954.34 -1954.34 -1954.11 -1954.11 -1953.97 -1953.97
-1953.92 -1953.92 -1953.94 -1953.94 -1141.85 -1141.85 -1307.75 -1307.75 -1450.1 -1450.1
-1566.11 -1566.11 -1676.41 -1676.41 -1794.33 -1794.33 -1904.37 -1904.37 -1982.49 -1982.49
-2011.49 -2011.49 -1985.95 -1985.95 -1940.47 -1940.47 -1914.11 -1914.11 -1907.98 -1907.98
-1912.59 -1912.59 -1921.03 -1921.03 -1928.57 -1928.57 -1933.96 -1933.96 -1937.53 -1937.53
-1939.82 -1939.82 -1941.28 -1941.28 -1942.15 -1942.15 -1942.51 -1942.51 -1942.58 -1942.58
-1942.54 -1942.54 -1018.53 -1018.53 -1179.2 -1179.2 -1323.56 -1323.56 -1457.52 -1457.52
-1576.04 -1576.04 -1678.88 -1678.88 -1766.54 -1766.54 -1822.64 -1822.64 -1831.01 -1831.01
-1823.99 -1823.99 -1834.99 -1834.99 -1852.95 -1852.95 -1866.44 -1866.44 -1876.78 -1876.78
-1883.67 -1883.67 -1888.4 -1888.4 -1892.8 -1892.8 -1896.55 -1896.55 -1899.1 -1899.1
-1900.46 -1900.46 -1901.04 -1901.04 -1901.15 -1901.15 -1900.86 -1900.86 -1900.32 -1900.32
-912.329 -912.329 -1065.32 -1065.32 -1210.46 -1210.46 -1350.19 -1350.19 -1480.48 -1480.48
-1602.85 -1602.85 -1704.45 -1704.45 -1778.72 -1778.72 -1833.55 -1833.55 -1870.36 -1870.36
-1892.2 -1892.2 -1914.62 -1914.62 -1942.6 -1942.6 -1966.23 -1966.23 -1978.75 -1978.75
-1984.64 -1984.64 -1986.48 -1986.48 -1986.26 -1986.26 -1985.66 -1985.66 -1985.65 -1985.65
-1986.26 -1986.26 -1986.76 -1986.76 -1986.81 -1986.81 -1986.6 -1986.6 -802.182 -802.182
-950.372 -950.372 -1092.82 -1092.82 -1238.07 -1238.07 -1375.93 -1375.93 -1502.29 -1502.29
-1617.7 -1617.7 -1722.69 -1722.69 -1809.47 -1809.47 -1876.61 -1876.61 -1933.91 -1933.91
-1983.04 -1983.04 -2019.88 -2019.88 -2049.28 -2049.28 -2075.61 -2075.61 -2094.49 -2094.49
-2102.6 -2102.6 -2105.13 -2105.13 -2105.96 -2105.96 -2106.74 -2106.74 -2107.22 -2107.22
-2107.55 -2107.55 -2108.2 -2108.2 -2108.75 -2108.75 -695.839 -695.839 -836.716 -836.716
-976.076 -976.076 -1121.51 -1121.51 -1269.09 -1269.09 -1413.5 -1413.5 -1549.26 -1549.26
-1672.54 -1672.54 -1784.82 -1784.82 -1888.87 -1888.87 -1979.8 -1979.8 -2054.11 -2054.11
-2115.51 -2115.51 -2165.94 -2165.94 -2203.79 -2203.79 -2232.36 -2232.36 -2256.27 -2256.27
-2274.76 -2274.76 -2285.65 -2285.65 -2290.58 -2290.58 -2292.6 -2292.6 -2294.11 -2294.11