# vtk DataFile Version 2.0
sampleSurface
ASCII
DATASET POLYDATA
POINTS 5416 float
0 -0.5 0
0 0.5 0
-3.46945e-18 0.499855 0.05236
-3.46945e-18 -0.499855 0.05236
1.2326e-32 0.504 9.74689e-17
0 -0.504 0
3.46945e-18 0.50391 0.05236
0 -0.50391 0.05236
1.2326e-32 0.508145 9.62822e-17
0 -0.508145 2.37193e-18
0 -0.5 0.10472
0 0.5 0.10472
-3.46945e-18 -0.508185 0.05236
3.46945e-18 0.508185 0.05236
3.85186e-34 -0.512585 3.63404e-18
1.2326e-32 0.512585 9.5045e-17
-8.47372e-19 0.504 0.10472
0 -0.504 0.10472
0 0.512833 0.05236
-3.46945e-18 -0.512833 0.05236
7.70372e-34 -0.51748 5.00193e-18
0 0.51748 9.37166e-17
-1.60282e-18 0.508145 0.10472
0 -0.508145 0.10472
3.46945e-18 0.518024 0.05236
0 -0.518024 0.05236
0 -0.523008 6.51791e-18
0 0.523008 9.22555e-17
3.85186e-34 -0.512585 0.10472
-2.40343e-18 0.512585 0.10472
0 -0.499855 0.15708
0 0.499855 0.15708
0 -0.523945 0.05236
3.46945e-18 0.523945 0.05236
3.46945e-18 -0.50391 0.15708
0 0.50391 0.15708
3.85186e-34 -0.51748 0.10472
-3.2782e-18 0.51748 0.10472
-7.70372e-34 -0.52937 8.22598e-18
0 0.52937 9.06191e-17
0 -0.508185 0.15708
0 0.508185 0.15708
0 0.530811 0.05236
0 -0.530811 0.05236
0 -0.523008 0.10472
-4.25882e-18 0.523008 0.10472
3.46945e-18 -0.512833 0.15708
3.46945e-18 0.512833 0.15708
0 0.536795 8.87627e-17
0 -0.536795 1.01723e-17
-7.70372e-34 -0.52937 0.10472
-1.56817e-18 0.52937 0.10472
-3.46945e-18 -0.518024 0.15708
0 0.518024 0.15708
-3.46945e-18 0.53887 0.05236
0 -0.53887 0.05236
0 -0.5 0.20944
0 0.5 0.20944
0 -0.545552 1.24049e-17
-1.2326e-32 0.545552 8.66402e-17
-8.47372e-19 0.504 0.20944
0 -0.504 0.20944
4.90299e-18 0.536795 0.10472
0 -0.536795 0.10472
3.46945e-18 -0.523945 0.15708
0 0.523945 0.15708
-1.60282e-18 0.508145 0.20944
0 -0.508145 0.20944
-3.46945e-18 0.548416 0.05236
-3.46945e-18 -0.548416 0.05236
0 0.530811 0.15708
3.46945e-18 -0.530811 0.15708
3.85186e-34 -0.512585 0.20944
-2.40343e-18 0.512585 0.20944
0 -0.545552 0.10472
3.5457e-18 0.545552 0.10472
1.54074e-33 -0.555958 1.49737e-17
0 0.555958 8.4204e-17
3.85186e-34 -0.51748 0.20944
-3.2782e-18 0.51748 0.20944
0 0.53887 0.15708
0 -0.53887 0.15708
3.46945e-18 -0.559793 0.05236
-3.46945e-18 0.559793 0.05236
0 -0.523008 0.20944
-4.25882e-18 0.523008 0.20944
0 0.499855 0.2618
0 -0.499855 0.2618
1.54074e-33 -0.555958 0.10472
1.93604e-18 0.555958 0.10472
0 0.50391 0.2618
0 -0.50391 0.2618
0 -0.568391 1.79285e-17
0 0.568391 8.14062e-17
0 -0.52937 0.20944
-1.56817e-18 0.52937 0.20944
3.46945e-18 0.548416 0.15708
-3.46945e-18 -0.548416 0.15708
0 0.508185 0.2618
0 -0.508185 0.2618
3.46945e-18 0.512833 0.2618
0 -0.512833 0.2618
-3.46945e-18 -0.573414 0.05236
-3.46945e-18 0.573414 0.05236
4.90299e-18 0.536795 0.20944
0 -0.536795 0.20944
0 -0.568391 0.10472
1.56933e-20 0.568391 0.10472
0 0.518024 0.2618
0 -0.518024 0.2618
3.46945e-18 -0.559793 0.15708
0 0.559793 0.15708
-1.2326e-32 0.5833 7.82005e-17
0 -0.5833 2.13182e-17
3.5457e-18 0.545552 0.20944
0 -0.545552 0.20944
0 -0.523945 0.2618
0 0.523945 0.2618
0 -0.5 0.31416
0 0.5 0.31416
0 -0.530811 0.2618
0 0.530811 0.2618
0 0.589774 0.05236
0 -0.589774 0.05236
1.88769e-18 0.5833 0.10472
0 -0.5833 0.10472
-8.47372e-19 0.504 0.31416
0 -0.504 0.31416
1.54074e-33 -0.555958 0.20944
1.93604e-18 0.555958 0.20944
3.46945e-18 -0.573414 0.15708
-3.46945e-18 0.573414 0.15708
-1.60282e-18 0.508145 0.31416
0 -0.508145 0.31416
-6.93889e-18 0.53887 0.2618
0 -0.53887 0.2618
3.85186e-34 -0.512585 0.31416
-2.40343e-18 0.512585 0.31416
-3.08149e-33 -0.601225 2.5187e-17
0 0.601225 7.45446e-17
3.85186e-34 -0.51748 0.31416
-3.2782e-18 0.51748 0.31416
1.56933e-20 0.568391 0.20944
0 -0.568391 0.20944
0 -0.548416 0.2618
-6.93889e-18 0.548416 0.2618
0 -0.523008 0.31416
-4.25882e-18 0.523008 0.31416
0 -0.601225 0.10472
-7.57539e-19 0.601225 0.10472
3.46945e-18 -0.589774 0.15708
0 0.589774 0.15708
3.46945e-18 -0.609466 0.05236
-3.46945e-18 0.609466 0.05236
-7.70372e-34 -0.52937 0.31416
-1.56817e-18 0.52937 0.31416
0 -0.559793 0.2618
-3.46945e-18 0.559793 0.2618
1.88769e-18 0.5833 0.20944
0 -0.5833 0.20944
0 -0.499855 0.36652
0 0.499855 0.36652
4.90299e-18 0.536795 0.31416
0 -0.536795 0.31416
0 -0.622816 2.95718e-17
0 0.622816 7.04032e-17
0 -0.50391 0.36652
0 0.50391 0.36652
-3.46945e-18 -0.508185 0.36652
0 0.508185 0.36652
-3.46945e-18 0.609466 0.15708
-3.46945e-18 -0.609466 0.15708
3.5457e-18 0.545552 0.31416
0 -0.545552 0.31416
0 -0.512833 0.36652
3.46945e-18 0.512833 0.36652
-3.46945e-18 -0.573414 0.2618
-3.46945e-18 0.573414 0.2618
3.08149e-33 -0.622816 0.10472
-3.94236e-18 0.622816 0.10472
3.46945e-18 0.518024 0.36652
0 -0.518024 0.36652
3.46945e-18 -0.633203 0.05236
0 0.633203 0.05236
-7.57539e-19 0.601225 0.20944
0 -0.601225 0.20944
1.54074e-33 -0.555958 0.31416
1.93604e-18 0.555958 0.31416
-3.46945e-18 -0.523945 0.36652
3.46945e-18 0.523945 0.36652
0 -0.530811 0.36652
0 0.530811 0.36652
0 -0.589774 0.2618
-3.46945e-18 0.589774 0.2618
0 -0.648853 3.44975e-17
6.16298e-33 0.648853 6.57525e-17
1.56933e-20 0.568391 0.31416
0 -0.568391 0.31416
3.46945e-18 -0.53887 0.36652
6.93889e-18 0.53887 0.36652
0 -0.5 0.41888
0 0.5 0.41888
3.46945e-18 0.633203 0.15708
6.93889e-18 -0.633203 0.15708
-8.47372e-19 0.504 0.41888
0 -0.504 0.41888
-3.94236e-18 0.622816 0.20944
3.08149e-33 -0.622816 0.20944
0 -0.648853 0.10472
-3.17453e-18 0.648853 0.10472
-1.60282e-18 0.508145 0.41888
0 -0.508145 0.41888
-6.93889e-18 0.548416 0.36652
-3.46945e-18 -0.548416 0.36652
-2.40343e-18 0.512585 0.41888
3.85186e-34 -0.512585 0.41888
1.88769e-18 0.5833 0.31416
0 -0.5833 0.31416
0 -0.609466 0.2618
3.46945e-18 0.609466 0.2618
3.46945e-18 -0.661848 0.05236
0 0.661848 0.05236
3.85186e-34 -0.51748 0.41888
-3.2782e-18 0.51748 0.41888
-3.46945e-18 0.559793 0.36652
0 -0.559793 0.36652
0 -0.523008 0.41888
-4.25882e-18 0.523008 0.41888
0 -0.52937 0.41888
-1.56817e-18 0.52937 0.41888
0 -0.601225 0.31416
-7.57539e-19 0.601225 0.31416
0 -0.661848 0.15708
0 0.661848 0.15708
0 -0.680281 3.99727e-17
0 0.680281 6.0584e-17
0 -0.573414 0.36652
-3.46945e-18 0.573414 0.36652
4.90299e-18 0.536795 0.41888
0 -0.536795 0.41888
-3.17453e-18 0.648853 0.20944
0 -0.648853 0.20944
6.93889e-18 -0.633203 0.2618
0 0.633203 0.2618
3.46945e-18 -0.499855 0.47124
-3.46945e-18 0.499855 0.47124
3.5457e-18 0.545552 0.41888
0 -0.545552 0.41888
0 -0.680281 0.10472
2.03209e-18 0.680281 0.10472
3.46945e-18 0.50391 0.47124
0 -0.50391 0.47124
0 -0.508185 0.47124
0 0.508185 0.47124
-3.46945e-18 -0.589774 0.36652
0 0.589774 0.36652
1.93604e-18 0.555958 0.41888
1.54074e-33 -0.555958 0.41888
0 0.512833 0.47124
0 -0.512833 0.47124
-3.94236e-18 0.622816 0.31416
3.08149e-33 -0.622816 0.31416
-3.46945e-18 -0.696438 0.05236
0 0.696438 0.05236
0 -0.518024 0.47124
3.46945e-18 0.518024 0.47124
0 0.523945 0.47124
0 -0.523945 0.47124
1.56933e-20 0.568391 0.41888
0 -0.568391 0.41888
0 -0.530811 0.47124
3.46945e-18 0.530811 0.47124
0 -0.609466 0.36652
3.46945e-18 0.609466 0.36652
3.46945e-18 -0.661848 0.2618
-3.46945e-18 0.661848 0.2618
0 -0.680281 0.20944
2.03209e-18 0.680281 0.20944
0 0.696438 0.15708
0 -0.696438 0.15708
0 -0.53887 0.47124
-6.93889e-18 0.53887 0.47124
1.88769e-18 0.5833 0.41888
0 -0.5833 0.41888
0 0.718236 5.49091e-17
0 -0.718236 4.59849e-17
0 -0.648853 0.31416
-3.17453e-18 0.648853 0.31416
-6.93889e-18 0.548416 0.47124
-3.46945e-18 -0.548416 0.47124
0 -0.5 0.5236
0 0.5 0.5236
-2.80905e-18 0.718236 0.10472
-6.16298e-33 -0.718236 0.10472
-8.47372e-19 0.504 0.5236
0 -0.504 0.5236
-1.60282e-18 0.508145 0.5236
0 -0.508145 0.5236
3.46945e-18 -0.633203 0.36652
0 0.633203 0.36652
0 -0.559793 0.47124
-3.46945e-18 0.559793 0.47124
3.85186e-34 -0.512585 0.5236
-2.40343e-18 0.512585 0.5236
0 -0.601225 0.41888
-7.57539e-19 0.601225 0.41888
3.85186e-34 -0.51748 0.5236
-3.2782e-18 0.51748 0.5236
-4.25882e-18 0.523008 0.5236
0 -0.523008 0.5236
3.46945e-18 -0.738229 0.05236
0 0.738229 0.05236
6.93889e-18 0.573414 0.47124
0 -0.573414 0.47124
-3.46945e-18 -0.696438 0.2618
0 0.696438 0.2618
-1.56817e-18 0.52937 0.5236
0 -0.52937 0.5236
-2.80905e-18 0.718236 0.20944
-6.16298e-33 -0.718236 0.20944
0 -0.680281 0.31416
2.03209e-18 0.680281 0.31416
0 -0.536795 0.5236
4.90299e-18 0.536795 0.5236
3.08149e-33 -0.622816 0.41888
-3.94236e-18 0.622816 0.41888
0 -0.738229 0.15708
0 0.738229 0.15708
0 -0.589774 0.47124
6.93889e-18 0.589774 0.47124
3.5457e-18 0.545552 0.5236
-1.54074e-33 -0.545552 0.5236
-3.46945e-18 -0.661848 0.36652
3.46945e-18 0.661848 0.36652
0 -0.499855 0.57596
0 0.499855 0.57596
1.54074e-33 -0.555958 0.5236
1.93604e-18 0.555958 0.5236
6.16298e-33 -0.764093 5.24974e-17
0 0.764093 4.87622e-17
0 0.50391 0.57596
-3.46945e-18 -0.50391 0.57596
-3.46945e-18 0.508185 0.57596
0 -0.508185 0.57596
-3.46945e-18 -0.609466 0.47124
0 0.609466 0.47124
3.46945e-18 -0.512833 0.57596
3.46945e-18 0.512833 0.57596
0 -0.764093 0.10472
2.08583e-18 0.764093 0.10472
0 -0.648853 0.41888
-3.17453e-18 0.648853 0.41888
0 -0.568391 0.5236
1.56933e-20 0.568391 0.5236
3.46945e-18 -0.518024 0.57596
0 0.518024 0.57596
-3.46945e-18 -0.523945 0.57596
0 0.523945 0.57596
0 0.530811 0.57596
-3.46945e-18 -0.530811 0.57596
0 -0.738229 0.2618
3.46945e-18 0.738229 0.2618
1.88769e-18 0.5833 0.5236
0 -0.5833 0.5236
-2.80905e-18 0.718236 0.31416
-6.16298e-33 -0.718236 0.31416
3.46945e-18 0.696438 0.36652
0 -0.696438 0.36652
3.46945e-18 -0.53887 0.57596
-3.46945e-18 0.53887 0.57596
-3.46945e-18 0.633203 0.47124
3.46945e-18 -0.633203 0.47124
-3.46945e-18 -0.788737 0.05236
-3.46945e-18 0.788737 0.05236
0 -0.764093 0.20944
2.08583e-18 0.764093 0.20944
3.46945e-18 0.548416 0.57596
0 -0.548416 0.57596
0 -0.601225 0.5236
-7.57539e-19 0.601225 0.5236
0 -0.680281 0.41888
2.03209e-18 0.680281 0.41888
0 -0.5 0.62832
0 0.5 0.62832
3.46945e-18 -0.559793 0.57596
-3.46945e-18 0.559793 0.57596
-3.46945e-18 -0.788737 0.15708
0 0.788737 0.15708
-8.47372e-19 0.504 0.62832
0 -0.504 0.62832
-1.60282e-18 0.508145 0.62832
0 -0.508145 0.62832
3.85186e-34 -0.512585 0.62832
-2.40343e-18 0.512585 0.62832
0 0.661848 0.47124
-3.46945e-18 -0.661848 0.47124
0 -0.573414 0.57596
0 0.573414 0.57596
3.08149e-33 -0.622816 0.5236
[...]
CELL_DATA 10372
FIELD attributes 1
p 1 10372 float
-578.469 -578.469 -578.469 -578.469 -709.215 -709.215 -709.215 -709.215 -844.721 -844.721
-844.721 -844.721 -990.439 -990.439 -990.439 -990.439 -1144.13 -1144.13 -1144.13 -1144.13
-1301.97 -1301.97 -1301.97 -1301.97 -1460.98 -1460.98 -1460.98 -1460.98 -1618.08 -1618.08
-1618.08 -1618.08 -1768.55 -1768.55 -1768.55 -1768.55 -1908.01 -1908.01 -1908.01 -1908.01
-2036.39 -2036.39 -2036.39 -2036.39 -2156.12 -2156.12 -2156.12 -2156.12 -2265.41 -2265.41
-2265.41 -2265.41 -2361.38 -2361.38 -2361.38 -2361.38 -2444.06 -2444.06 -2444.06 -2444.06
-2514.5 -2514.5 -2514.5 -2514.5 -2572.77 -2572.77 -2572.77 -2572.77 -2619.68 -2619.68
-2619.68 -2619.68 -2654.85 -2654.85 -2654.85 -2654.85 -2678.28 -2678.28 -2678.28 -2678.28
-2692.48 -2692.48 -2692.48 -2692.48 -2700.35 -2700.35 -2700.35 -2700.35 -2704.72 -2704.72
-2704.72 -2704.72 -2707.14 -2707.14 -2707.14 -2707.14 -471.81 -471.81 -471.81 -471.81
-577.12 -577.12 -577.12 -577.12 -688.842 -688.842 -688.842 -688.842 -805.274 -805.274
-805.274 -805.274 -926.726 -926.726 -926.726 -926.726 -1052.18 -1052.18 -1052.18 -1052.18
-1179.25 -1179.25 -1179.25 -1179.25 -1303.61 -1303.61 -1303.61 -1303.61 -1423.01 -1423.01
-1423.01 -1423.01 -1539.64 -1539.64 -1539.64 -1539.64 -1650.92 -1650.92 -1650.92 -1650.92
-1750.82 -1750.82 -1750.82 -1750.82 -1838.9 -1838.9 -1838.9 -1838.9 -1917.87 -1917.87
-1917.87 -1917.87 -1987.77 -1987.77 -1987.77 -1987.77 -2046.84 -2046.84 -2046.84 -2046.84
-2095.29 -2095.29 -2095.29 -2095.29 -2132.61 -2132.61 -2132.61 -2132.61 -2158.3 -2158.3
-2158.3 -2158.3 -2174.6 -2174.6 -2174.6 -2174.6 -2184.17 -2184.17 -2184.17 -2184.17
-2189.61 -2189.61 -2189.61 -2189.61 -2192.58 -2192.58 -2192.58 -2192.58 -2194.04 -2194.04
-2194.04 -2194.04 -579.104 -579.104 -579.104 -579.104 -710.006 -710.006 -710.006 -710.006
-845.951 -845.951 -845.951 -845.951 -992.23 -992.23 -992.23 -992.23 -1146.7 -1146.7
-1146.7 -1146.7 -1305.33 -1305.33 -1305.33 -1305.33 -1465.23 -1465.23 -1465.23 -1465.23
-1623.56 -1623.56 -1623.56 -1623.56 -1775.67 -1775.67 -1775.67 -1775.67 -1917.07 -1917.07
-1917.07 -1917.07 -2047.34 -2047.34 -2047.34 -2047.34 -2168.92 -2168.92 -2168.92 -2168.92
-2280.73 -2280.73 -2280.73 -2280.73 -2379.87 -2379.87 -2379.87 -2379.87 -2465.87 -2465.87
-2465.87 -2465.87 -2539.37 -2539.37 -2539.37 -2539.37 -2600.31 -2600.31 -2600.31 -2600.31
-2649.22 -2649.22 -2649.22 -2649.22 -2685.61 -2685.61 -2685.61 -2685.61 -2709.76 -2709.76
-2709.76 -2709.76 -2724.3 -2724.3 -2724.3 -2724.3 -2732.28 -2732.28 -2732.28 -2732.28
-2736.73 -2736.73 -2736.73 -2736.73 -2739.27 -2739.27 -2739.27 -2739.27 -471.973 -471.973
-471.973 -471.973 -577.458 -577.458 -577.458 -577.458 -689.26 -689.26 -689.26 -689.26
-805.828 -805.828 -805.828 -805.828 -927.431 -927.431 -927.431 -927.431 -1053.02 -1053.02
-1053.02 -1053.02 -1179.92 -1179.92 -1179.92 -1179.92 -1303.72 -1303.72 -1303.72 -1303.72
-1422.33 -1422.33 -1422.33 -1422.33 -1538.12 -1538.12 -1538.12 -1538.12 -1648.4 -1648.4
-1648.4 -1648.4 -1747.23 -1747.23 -1747.23 -1747.23 -1834.5 -1834.5 -1834.5 -1834.5
-1913.01 -1913.01 -1913.01 -1913.01 -1982.58 -1982.58 -1982.58 -1982.58 -2041.41 -2041.41
-2041.41 -2041.41 -2089.65 -2089.65 -2089.65 -2089.65 -2126.75 -2126.75 -2126.75 -2126.75
-2152.21 -2152.21 -2152.21 -2152.21 -2168.31 -2168.31 -2168.31 -2168.31 -2177.74 -2177.74
-2177.74 -2177.74 -2183.08 -2183.08 -2183.08 -2183.08 -2185.99 -2185.99 -2185.99 -2185.99
-2187.43 -2187.43 -2187.43 -2187.43 -579.927 -579.927 -579.927 -579.927 -711.261 -711.261
-711.261 -711.261 -847.884 -847.884 -847.884 -847.884 -994.887 -994.887 -994.887 -994.887
-1150.18 -1150.18 -1150.18 -1150.18 -1309.79 -1309.79 -1309.79 -1309.79 -1470.75 -1470.75
-1470.75 -1470.75 -1629.88 -1629.88 -1629.88 -1629.88 -1782.17 -1782.17 -1782.17 -1782.17
-1923.11 -1923.11 -1923.11 -1923.11 -2052.56 -2052.56 -2052.56 -2052.56 -2173.27 -2173.27
-2173.27 -2173.27 -2284.32 -2284.32 -2284.32 -2284.32 -2383.05 -2383.05 -2383.05 -2383.05
-2469.13 -2469.13 -2469.13 -2469.13 -2543.16 -2543.16 -2543.16 -2543.16 -2604.78 -2604.78
-2604.78 -2604.78 -2654.33 -2654.33 -2654.33 -2654.33 -2691.08 -2691.08 -2691.08 -2691.08
-2715.3 -2715.3 -2715.3 -2715.3 -2729.79 -2729.79 -2729.79 -2729.79 -2737.68 -2737.68
-2737.68 -2737.68 -2742.02 -2742.02 -2742.02 -2742.02 -2744.49 -2744.49 -2744.49 -2744.49
-472.39 -472.39 -472.39 -472.39 -578.186 -578.186 -578.186 -578.186 -690.191 -690.191
-690.191 -690.191 -807.074 -807.074 -807.074 -807.074 -929.124 -929.124 -929.124 -929.124
-1055.09 -1055.09 -1055.09 -1055.09 -1181.85 -1181.85 -1181.85 -1181.85 -1304.81 -1304.81
-1304.81 -1304.81 -1422.23 -1422.23 -1422.23 -1422.23 -1536.77 -1536.77 -1536.77 -1536.77
-1645.32 -1645.32 -1645.32 -1645.32 -1742.07 -1742.07 -1742.07 -1742.07 -1827.56 -1827.56
-1827.56 -1827.56 -1904.94 -1904.94 -1904.94 -1904.94 -1973.77 -1973.77 -1973.77 -1973.77
-2032.11 -2032.11 -2032.11 -2032.11 -2080.08 -2080.08 -2080.08 -2080.08 -2116.92 -2116.92
-2116.92 -2116.92 -2142.15 -2142.15 -2142.15 -2142.15 -2158.01 -2158.01 -2158.01 -2158.01
-2167.25 -2167.25 -2167.25 -2167.25 -2172.46 -2172.46 -2172.46 -2172.46 -2175.28 -2175.28
-2175.28 -2175.28 -2176.67 -2176.67 -2176.67 -2176.67 -580.477 -580.477 -580.477 -580.477
-712.541 -712.541 -712.541 -712.541 -849.917 -849.917 -849.917 -849.917 -997.765 -997.765
-997.765 -997.765 -1153.95 -1153.95 -1153.95 -1153.95 -1314.68 -1314.68 -1314.68 -1314.68
-1477 -1477 -1477 -1477 -1637.41 -1637.41 -1637.41 -1637.41 -1790.34 -1790.34
-1790.34 -1790.34 -1931 -1931 -1931 -1931 -2059.65 -2059.65 -2059.65 -2059.65
-2179.28 -2179.28 -2179.28 -2179.28 -2289.09 -2289.09 -2289.09 -2289.09 -2386.74 -2386.74
-2386.74 -2386.74 -2472.23 -2472.23 -2472.23 -2472.23 -2546.38 -2546.38 -2546.38 -2546.38
-2608.75 -2608.75 -2608.75 -2608.75 -2659.38 -2659.38 -2659.38 -2659.38 -2697.07 -2697.07
-2697.07 -2697.07 -2721.81 -2721.81 -2721.81 -2721.81 -2736.46 -2736.46 -2736.46 -2736.46
-2744.24 -2744.24 -2744.24 -2744.24 -2748.44 -2748.44 -2748.44 -2748.44 -2750.86 -2750.86
-2750.86 -2750.86 -473.137 -473.137 -473.137 -473.137 -579.375 -579.375 -579.375 -579.375
-691.764 -691.764 -691.764 -691.764 -809.182 -809.182 -809.182 -809.182 -931.992 -931.992
-931.992 -931.992 -1058.61 -1058.61 -1058.61 -1058.61 -1185.34 -1185.34 -1185.34 -1185.34
-1307.44 -1307.44 -1307.44 -1307.44 -1423.72 -1423.72 -1423.72 -1423.72 -1537 -1537
-1537 -1537 -1643.44 -1643.44 -1643.44 -1643.44 -1737.45 -1737.45 -1737.45 -1737.45
-1820.62 -1820.62 -1820.62 -1820.62 -1896.64 -1896.64 -1896.64 -1896.64 -1964.71 -1964.71
-1964.71 -1964.71 -2022.8 -2022.8 -2022.8 -2022.8 -2070.79 -2070.79 -2070.79 -2070.79
-2107.59 -2107.59 -2107.59 -2107.59 -2132.72 -2132.72 -2132.72 -2132.72 -2148.42 -2148.42
-2148.42 -2148.42 -2157.47 -2157.47 -2157.47 -2157.47 -2162.53 -2162.53 -2162.53 -2162.53
-2165.27 -2165.27 -2165.27 -2165.27 -2166.62 -2166.62 -2166.62 -2166.62 -581.197 -581.197
-581.197 -581.197 -714.054 -714.054 -714.054 -714.054 -852.254 -852.254 -852.254 -852.254
-1001.02 -1001.02 -1001.02 -1001.02 -1158.14 -1158.14 -1158.14 -1158.14 -1319.9 -1319.9
-1319.9 -1319.9 -1483.37 -1483.37 -1483.37 -1483.37 -1644.63 -1644.63 -1644.63 -1644.63
-1797.52 -1797.52 -1797.52 -1797.52 -1937.34 -1937.34 -1937.34 -1937.34 -2064.94 -2064.94
-2064.94 -2064.94 -2183.29 -2183.29 -2183.29 -2183.29 -2291.27 -2291.27 -2291.27 -2291.27
-2386.84 -2386.84 -2386.84 -2386.84 -2470.6 -2470.6 -2470.6 -2470.6 -2543.74 -2543.74
-2543.74 -2543.74 -2605.88 -2605.88 -2605.88 -2605.88 -2656.84 -2656.84 -2656.84 -2656.84
-2694.98 -2694.98 -2694.98 -2694.98 -2720.01 -2720.01 -2720.01 -2720.01 -2734.7 -2734.7
-2734.7 -2734.7 -2742.42 -2742.42 -2742.42 -2742.42 -2746.58 -2746.58 -2746.58 -2746.58
-2748.95 -2748.95 -2748.95 -2748.95 -474.239 -474.239 -474.239 -474.239 -580.901 -580.901
-580.901 -580.901 -693.835 -693.835 -693.835 -693.835 -811.997 -811.997 -811.997 -811.997
-935.96 -935.96 -935.96 -935.96 -1063.75 -1063.75 -1063.75 -1063.75 -1191.1 -1191.1
-1191.1 -1191.1 -1313.19 -1313.19 -1313.19 -1313.19 -1429.39 -1429.39 -1429.39 -1429.39
-1542.39 -1542.39 -1542.39 -1542.39 -1647.75 -1647.75 -1647.75 -1647.75 -1740.3 -1740.3
-1740.3 -1740.3 -1822.5 -1822.5 -1822.5 -1822.5 -1898.32 -1898.32 -1898.32 -1898.32
-1966.76 -1966.76 -1966.76 -1966.76 -2025.61 -2025.61 -2025.61 -2025.61 -2074.43 -2074.43
-2074.43 -2074.43 -2111.77 -2111.77 -2111.77 -2111.77 -2137.19 -2137.19 -2137.19 -2137.19
-2152.97 -2152.97 -2152.97 -2152.97 -2161.93 -2161.93 -2161.93 -2161.93 -2166.88 -2166.88
-2166.88 -2166.88 -2169.58 -2169.58 -2169.58 -2169.58 -2170.93 -2170.93 -2170.93 -2170.93
-582.238 -582.238 -582.238 -582.238 -715.872 -715.872 -715.872 -715.872 -854.932 -854.932
-854.932 -854.932 -1004.64 -1004.64 -1004.64 -1004.64 -1162.8 -1162.8 -1162.8 -1162.8
-1325.66 -1325.66 -1325.66 -1325.66 -1490.38 -1490.38 -1490.38 -1490.38 -1652.97 -1652.97
-1652.97 -1652.97 -1807.2 -1807.2 -1807.2 -1807.2 -1948.51 -1948.51 -1948.51 -1948.51
-2077.76 -2077.76 -2077.76 -2077.76 -2197.66 -2197.66 -2197.66 -2197.66 -2307.01 -2307.01
-2307.01 -2307.01 -2403.76 -2403.76 -2403.76 -2403.76 -2488.57 -2488.57 -2488.57 -2488.57
-2562.6 -2562.6 -2562.6 -2562.6 -2625.45 -2625.45 -2625.45 -2625.45 -2676.92 -2676.92
-2676.92 -2676.92 -2715.41 -2715.41 -2715.41 -2715.41 -2740.68 -2740.68 -2740.68 -2740.68
-2755.56 -2755.56 -2755.56 -2755.56 -2763.41 -2763.41 -2763.41 -2763.41 -2767.64 -2767.64
-2767.64 -2767.64 -2770.03 -2770.03 -2770.03 -2770.03 -475.428 -475.428 -475.428 -475.428
-582.597 -582.597 -582.597 -582.597 -696.274 -696.274 -696.274 -696.274 -815.471 -815.471
-815.471 -815.471 -940.844 -940.844 -940.844 -940.844 -1070.19 -1070.19 -1070.19 -1070.19
-1198.97 -1198.97 -1198.97 -1198.97 -1322.33 -1322.33 -1322.33 -1322.33 -1439.9 -1439.9
-1439.9 -1439.9 -1554.16 -1554.16 -1554.16 -1554.16 -1660.42 -1660.42 -1660.42 -1660.42
-1753.87 -1753.87 -1753.87 -1753.87 -1837.34 -1837.34 -1837.34 -1837.34 -1914.88 -1914.88
-1914.88 -1914.88 -1985.23 -1985.23 -1985.23 -1985.23 -2045.96 -2045.96 -2045.96 -2045.96
-2096.35 -2096.35 -2096.35 -2096.35 -2134.78 -2134.78 -2134.78 -2134.78 -2160.84 -2160.84
-2160.84 -2160.84 -2176.92 -2176.92 -2176.92 -2176.92 -2185.91 -2185.91 -2185.91 -2185.91
-2190.82 -2190.82 -2190.82 -2190.82 -2193.53 -2193.53 -2193.53 -2193.53 -2194.89 -2194.89
-2194.89 -2194.89 -583.46 -583.46 -583.46 -583.46 -717.827 -717.827 -717.827 -717.827
-857.842 -857.842 -857.842 -857.842 -1008.62 -1008.62 -1008.62 -1008.62 -1168.02 -1168.02
-1168.02 -1168.02 -1332.13 -1332.13 -1332.13 -1332.13 -1498.11 -1498.11 -1498.11 -1498.11
-1662.39 -1662.39 -1662.39 -1662.39 -1819.23 -1819.23 -1819.23 -1819.23 -1964.04 -1964.04
-1964.04 -1964.04 -2097.05 -2097.05 -2097.05 -2097.05 -2220.73 -2220.73 -2220.73 -2220.73
-2334.03 -2334.03 -2334.03 -2334.03 -2434.65 -2434.65 -2434.65 -2434.65 -2522.74 -2522.74
-2522.74 -2522.74 -2599.18 -2599.18 -2599.18 -2599.18 -2663.53 -2663.53 -2663.53 -2663.53
-2715.74 -2715.74 -2715.74 -2715.74 -2754.63 -2754.63 -2754.63 -2754.63 -2780.24 -2780.24
-2780.24 -2780.24 -2795.44 -2795.44 -2795.44 -2795.44 -2803.57 -2803.57 -2803.57 -2803.57
-2807.96 -2807.96 -2807.96 -2807.96 -2810.41 -2810.41 -2810.41 -2810.41 -476.416 -476.416
-476.416 -476.416 -584.288 -584.288 -584.288 -584.288 -698.992 -698.992 -698.992 -698.992
-819.404 -819.404 -819.404 -819.404 -946.055 -946.055 -946.055 -946.055 -1077 -1077
-1077 -1077 -1207.89 -1207.89 -1207.89 -1207.89 -1333.46 -1333.46 -1333.46 -1333.46
-1452.75 -1452.75 -1452.75 -1452.75 -1568.72 -1568.72 -1568.72 -1568.72 -1677.15 -1677.15
-1677.15 -1677.15 -1772.82 -1772.82 -1772.82 -1772.82 -1858.12 -1858.12 -1858.12 -1858.12
-1937.12 -1937.12 -1937.12 -1937.12 -2008.83 -2008.83 -2008.83 -2008.83 -2070.74 -2070.74
-2070.74 -2070.74 -2122.08 -2122.08 -2122.08 -2122.08 -2161.27 -2161.27 -2161.27 -2161.27
-2187.84 -2187.84 -2187.84 -2187.84 -2204.24 -2204.24 -2204.24 -2204.24 -2213.39 -2213.39
-2213.39 -2213.39 -2218.38 -2218.38 -2218.38 -2218.38 -2221.15 -2221.15 -2221.15 -2221.15
-2222.54 -2222.54 -2222.54 -2222.54 -584.62 -584.62 -584.62 -584.62 -719.6 -719.6
-719.6 -719.6 -860.487 -860.487 -860.487 -860.487 -1012.21 -1012.21 -1012.21 -1012.21
-1172.67 -1172.67 -1172.67 -1172.67 -1337.87 -1337.87 -1337.87 -1337.87 -1505.04 -1505.04
-1505.04 -1505.04 -1670.9 -1670.9 -1670.9 -1670.9 -1830.27 -1830.27 -1830.27 -1830.27
-1978.69 -1978.69 -1978.69 -1978.69 -2115.65 -2115.65 -2115.65 -2115.65 -2243.22 -2243.22
-2243.22 -2243.22 -2360.53 -2360.53 -2360.53 -2360.53 -2465.06 -2465.06 -2465.06 -2465.06
-2556.44 -2556.44 -2556.44 -2556.44 -2635.21 -2635.21 -2635.21 -2635.21 -2701 -2701
-2701 -2701 -2753.92 -2753.92 -2753.92 -2753.92 -2793.15 -2793.15 -2793.15 -2793.15
-2819.03 -2819.03 -2819.03 -2819.03 -2834.48 -2834.48 -2834.48 -2834.48 -2842.85 -2842.85
-2842.85 -2842.85 -2847.49 -2847.49 -2847.49 -2847.49 -2850.11 -2850.11 -2850.11 -2850.11
-477.262 -477.262 -477.262 -477.262 -585.892 -585.892 -585.892 -585.892 -701.737 -701.737
-701.737 -701.737 -823.507 -823.507 -823.507 -823.507 -951.438 -951.438 -951.438 -951.438
-1083.99 -1083.99 -1083.99 -1083.99 -1217.37 -1217.37 -1217.37 -1217.37 -1346.15 -1346.15
-1346.15 -1346.15 -1468.13 -1468.13 -1468.13 -1468.13 -1586.52 -1586.52 -1586.52 -1586.52
-1698.39 -1698.39 -1698.39 -1698.39 -1797.95 -1797.95 -1797.95 -1797.95 -1886.39 -1886.39
-1886.39 -1886.39 -1967.38 -1967.38 -1967.38 -1967.38 -2040.4 -2040.4 -2040.4 -2040.4
-2103.24 -2103.24 -2103.24 -2103.24 -2155.35 -2155.35 -2155.35 -2155.35 -2195.35 -2195.35
-2195.35 -2195.35 -2222.6 -2222.6 -2222.6 -2222.6 -2239.54 -2239.54 -2239.54 -2239.54
-2249.09 -2249.09 -2249.09 -2249.09 -2254.32 -2254.32 -2254.32 -2254.32 -2257.18 -2257.18
-2257.18 -2257.18 -2258.59 -2258.59 -2258.59 -2258.59 -585.642 -585.642 -585.642 -585.642
-721.247 -721.247 -721.247 -721.247 -862.994 -862.994 -862.994 -862.994 -1015.61 -1015.61
-1015.61 -1015.61 -1177.03 -1177.03 -1177.03 -1177.03 -1343.14 -1343.14 -1343.14 -1343.14
-1511.13 -1511.13 -1511.13 -1511.13 -1677.59 -1677.59 -1677.59 -1677.59 -1837.65 -1837.65
-1837.65 -1837.65 -1987.01 -1987.01 -1987.01 -1987.01 -2124.91 -2124.91 -2124.91 -2124.91
-2253.21 -2253.21 -2253.21 -2253.21 -2371 -2371 -2371 -2371 -2475.69 -2475.69
-2475.69 -2475.69 -2566.77 -2566.77 -2566.77 -2566.77 -2644.88 -2644.88 -2644.88 -2644.88
-2709.88 -2709.88 -2709.88 -2709.88 -2762.08 -2762.08 -2762.08 -2762.08 -2800.93 -2800.93
-2800.93 -2800.93 -2826.74 -2826.74 -2826.74 -2826.74 -2842.26 -2842.26 -2842.26 -2842.26
-2850.75 -2850.75 -2850.75 -2850.75 -2855.47 -2855.47 -2855.47 -2855.47 -2858.12 -2858.12
-2858.12 -2858.12 -478.304 -478.304 -478.304 -478.304 -587.551 -587.551 -587.551 -587.551
-704.547 -704.547 -704.547 -704.547 -827.764 -827.764 -827.764 -827.764 -957.104 -957.104
-957.104 -957.104 -1091.32 -1091.32 -1091.32 -1091.32 -1227.24 -1227.24 -1227.24 -1227.24
-1359.6 -1359.6 -1359.6 -1359.6 -1485.23 -1485.23 -1485.23 -1485.23 -1606.77 -1606.77
-1606.77 -1606.77 -1722.43 -1722.43 -1722.43 -1722.43 -1826.33 -1826.33 -1826.33 -1826.33
-1918.46 -1918.46 -1918.46 -1918.46 -2001.96 -2001.96 -2001.96 -2001.96 -2076.77 -2076.77
-2076.77 -2076.77 -2140.92 -2140.92 -2140.92 -2140.92 -2194 -2194 -2194 -2194
-2234.95 -2234.95 -2234.95 -2234.95 -2263.06 -2263.06 -2263.06 -2263.06 -2280.77 -2280.77
-2280.77 -2280.77 -2290.9 -2290.9 -2290.9 -2290.9 -2296.46 -2296.46 -2296.46 -2296.46
-2299.48 -2299.48 -2299.48 -2299.48 -2300.98 -2300.98 -2300.98 -2300.98 -586.369 -586.369
-586.369 -586.369 -722.843 -722.843 -722.843 -722.843 -865.498 -865.498 -865.498 -865.498
-1019.08 -1019.08 -1019.08 -1019.08 -1181.62 -1181.62 -1181.62 -1181.62 -1349.22 -1349.22
-1349.22 -1349.22 -1519.04 -1519.04 -1519.04 -1519.04 -1687.48 -1687.48 -1687.48 -1687.48
-1849.73 -1849.73 -1849.73 -1849.73 -2001.5 -2001.5 -2001.5 -2001.5 -2141.78 -2141.78
-2141.78 -2141.78 -2272.31 -2272.31 -2272.31 -2272.31 -2392.2 -2392.2 -2392.2 -2392.2
-2498.74 -2498.74 -2498.74 -2498.74 -2591.4 -2591.4 -2591.4 -2591.4 -2670.94 -2670.94
-2670.94 -2670.94 -2737.27 -2737.27 -2737.27 -2737.27 -2790.61 -2790.61 -2790.61 -2790.61
-2830.4 -2830.4 -2830.4 -2830.4 -2856.93 -2856.93 -2856.93 -2856.93 -2872.92 -2872.92
-2872.92 -2872.92 -2881.66 -2881.66 -2881.66 -2881.66 -2886.51 -2886.51 -2886.51 -2886.51
-2889.21 -2889.21 -2889.21 -2889.21 -479.613 -479.613 -479.613 -479.613 -589.302 -589.302
-589.302 -589.302 -707.164 -707.164 -707.164 -707.164 -831.54 -831.54 -831.54 -831.54
-962.056 -962.056 -962.056 -962.056 -1097.53 -1097.53 -1097.53 -1097.53 -1235.06 -1235.06
-1235.06 -1235.06 -1369.52 -1369.52 -1369.52 -1369.52 -1497.5 -1497.5 -1497.5 -1497.5
-1621.36 -1621.36 -1621.36 -1621.36 -1739.35 -1739.35 -1739.35 -1739.35 -1845.49 -1845.49
-1845.49 -1845.49 -1939.37 -1939.37 -1939.37 -1939.37 -2024.2 -2024.2 -2024.2 -2024.2
-2100.21 -2100.21 -2100.21 -2100.21 -2165.39 -2165.39 -2165.39 -2165.39 -2219.34 -2219.34
-2219.34 -2219.34 -2261.04 -2261.04 -2261.04 -2261.04 -2289.78 -2289.78 -2289.78 -2289.78
-2308.01 -2308.01 -2308.01 -2308.01 -2318.54 -2318.54 -2318.54 -2318.54 -2324.36 -2324.36
-2324.36 -2324.36 -2327.52 -2327.52 -2327.52 -2327.52 -2329.09 -2329.09 -2329.09 -2329.09
-587.005 -587.005 -587.005 -587.005 -724.34 -724.34 -724.34 -724.34 -867.973 -867.973
-867.973 -867.973 -1022.74 -1022.74 -1022.74 -1022.74 -1186.66 -1186.66 -1186.66 -1186.66
-1356.15 -1356.15 -1356.15 -1356.15 -1528.3 -1528.3 -1528.3 -1528.3 -1699.34 -1699.34
-1699.34 -1699.34 -1864.42 -1864.42 -1864.42 -1864.42 -2019.3 -2019.3 -2019.3 -2019.3
-2162.79 -2162.79 -2162.79 -2162.79 -2296.58 -2296.58 -2296.58 -2296.58 -2419.82 -2419.82
-2419.82 -2419.82 -2529.89 -2529.89 -2529.89 -2529.89 -2626.11 -2626.11 -2626.11 -2626.11
-2709.07 -2709.07 -2709.07 -2709.07 -2778.55 -2778.55 -2778.55 -2778.55 -2834.52 -2834.52
-2834.52 -2834.52 -2876.17 -2876.17 -2876.17 -2876.17 -2903.9 -2903.9 -2903.9 -2903.9
-2920.55 -2920.55 -2920.55 -2920.55 -2929.57 -2929.57 -2929.57 -2929.57 -2934.55 -2934.55
-2934.55 -2934.55 -2937.29 -2937.29 -2937.29 -2937.29 -480.512 -480.512 -480.512 -480.512
-590.727 -590.727 -590.727 -590.727 -709.32 -709.32 -709.32 -709.32 -834.5 -834.5
-834.5 -834.5 -965.777 -965.777 -965.777 -965.777 -1101.98 -1101.98 -1101.98 -1101.98
-1240.44 -1240.44 -1240.44 -1240.44 -1376.12 -1376.12 -1376.12 -1376.12 -1505.23 -1505.23
-1505.23 -1505.23 -1629.84 -1629.84 -1629.84 -1629.84 -1748.45 -1748.45 -1748.45 -1748.45
-1855 -1855 -1855 -1855 -1948.75 -1948.75 -1948.75 -1948.75 -2033 -2033
-2033 -2033 -2108.4 -2108.4 -2108.4 -2108.4 -2173.03 -2173.03 -2173.03 -2173.03
-2226.54 -2226.54 -2226.54 -2226.54 -2268.06 -2268.06 -2268.06 -2268.06 -2296.81 -2296.81
-2296.81 -2296.81 -2315.15 -2315.15 -2315.15 -2315.15 -2325.85 -2325.85 -2325.85 -2325.85
-2331.84 -2331.84 -2331.84 -2331.84 -2335.11 -2335.11 -2335.11 -2335.11 -2336.73 -2336.73
-2336.73 -2336.73 -587.664 -587.664 -587.664 -587.664 -725.719 -725.719 -725.719 -725.719
-870.186 -870.186 -870.186 -870.186 -1025.99 -1025.99 -1025.99 -1025.99 -1191.01 -1191.01
-1191.01 -1191.01 -1362.05 -1362.05 -1362.05 -1362.05 -1535.91 -1535.91 -1535.91 -1535.91
-1708.52 -1708.52 -1708.52 -1708.52 -1874.81 -1874.81 -1874.81 -1874.81 -2030.52 -2030.52
-2030.52 -2030.52 -2174.62 -2174.62 -2174.62 -2174.62 -2308.9 -2308.9 -2308.9 -2308.9
-2432.7 -2432.7 -2432.7 -2432.7 -2543.57 -2543.57 -2543.57 -2543.57 -2640.94 -2640.94
-2640.94 -2640.94 -2725.37 -2725.37 -2725.37 -2725.37 -2796.26 -2796.26 -2796.26 -2796.26
-2853.42 -2853.42 -2853.42 -2853.42 -2895.87 -2895.87 -2895.87 -2895.87 -2923.97 -2923.97
-2923.97 -2923.97 -2940.74 -2940.74 -2940.74 -2940.74 -2949.76 -2949.76 -2949.76 -2949.76
-2954.68 -2954.68 -2954.68 -2954.68 -2957.41 -2957.41 -2957.41 -2957.41 -481.397 -481.397
-481.397 -481.397 -592.098 -592.098 -592.098 -592.098 -711.294 -711.294 -711.294 -711.294
-837.02 -837.02 -837.02 -837.02 -968.733 -968.733 -968.733 -968.733 -1105.28 -1105.28
-1105.28 -1105.28 -1244.21 -1244.21 -1244.21 -1244.21 -1380.61 -1380.61 -1380.61 -1380.61
-1510.57 -1510.57 -1510.57 -1510.57 -1636.07 -1636.07 -1636.07 -1636.07 -1755.48 -1755.48